
     Program PHONON v.6.7MaX starts on  9Sep2021 at 18: 6:57 

     This program is part of the open-source Quantum ESPRESSO suite
     for quantum simulation of materials; please cite
         "P. Giannozzi et al., J. Phys.:Condens. Matter 21 395502 (2009);
         "P. Giannozzi et al., J. Phys.:Condens. Matter 29 465901 (2017);
          URL http://www.quantum-espresso.org", 
     in publications or presentations arising from this work. More details at
     http://www.quantum-espresso.org/quote

     Parallel version (MPI), running on     2 processors

     MPI processes distributed on     1 nodes
     K-points division:     npool     =       2
     Reading input from ph.in

     Reading xml data from directory:

     ./temp/pb.save/

     IMPORTANT: XC functional enforced from input :
     Exchange-correlation= PZ
                           (   1   1   0   0   0   0   0)
     Any further DFT definition will be discarded
     Please, verify this is what you really want

 
     G-vector sticks info
     --------------------
     sticks:   dense  smooth     PW     G-vecs:    dense   smooth      PW
     Sum         703     703    211                12387    12387    2109
 
     Reading collected, re-writing distributed wavefunctions


     Dynamical matrices for ( 3, 3, 3)  uniform grid of q-points
     (   4 q-points):
       N         xq(1)         xq(2)         xq(3) 
       1   0.000000000   0.000000000   0.000000000
       2  -0.333333333   0.333333333  -0.333333333
       3   0.000000000   0.666666667   0.000000000
       4   0.666666667  -0.000000000   0.666666667

     Saving dvscf to file. Distribute only q points, not irreducible represetations.

     Calculation of q =    0.0000000   0.0000000   0.0000000

     --                                                                         

     bravais-lattice index     =            2
     lattice parameter (alat)  =       9.2700  a.u.
     unit-cell volume          =     199.1495 (a.u.)^3
     number of atoms/cell      =            1
     number of atomic types    =            1
     kinetic-energy cut-off    =      60.0000  Ry
     charge density cut-off    =     240.0000  Ry
     convergence threshold     =      1.0E-22
     beta                      =       0.7000
     number of iterations used =            4
     Exchange-correlation= PZ
                           (   1   1   0   0   0   0   0)


     celldm(1)=    9.27000  celldm(2)=    0.00000  celldm(3)=    0.00000
     celldm(4)=    0.00000  celldm(5)=    0.00000  celldm(6)=    0.00000

     crystal axes: (cart. coord. in units of alat)
               a(1) = ( -0.5000  0.0000  0.5000 )  
               a(2) = (  0.0000  0.5000  0.5000 )  
               a(3) = ( -0.5000  0.5000  0.0000 )  

     reciprocal axes: (cart. coord. in units 2 pi/alat)
               b(1) = ( -1.0000 -1.0000  1.0000 )  
               b(2) = (  1.0000  1.0000  1.0000 )  
               b(3) = ( -1.0000  1.0000 -1.0000 )  


     Atoms inside the unit cell: 

     Cartesian axes

     site n.  atom      mass           positions (alat units)
        1     Pb 207.2000   tau(    1) = (    0.00000    0.00000    0.00000  )

     Computing dynamical matrix for 
                    q = (   0.0000000   0.0000000   0.0000000 )
 
     49 Sym.Ops. (with q -> -q+G )


     G cutoff =  522.4094  (  12387 G-vectors)     FFT grid: ( 36, 36, 36)

     number of k points=    72  Methfessel-Paxton smearing, width (Ry)=  0.0250

     PseudoPot. # 1 for Pb read from file:
     ../../../pseudo/pb_s.UPF
     MD5 check sum: 7774f596943a2055f0d8d19eea6f2ae8
     Pseudo is Norm-conserving, Zval = 14.0
     Generated using "atomic" code by A. Dal Corso  (Quantum ESPRESSO distribution)
     Using radial grid of 1281 points,  2 beta functions with: 
                l(1) =   2
                l(2) =   1

     Mode symmetry, O_h (m-3m)  point group:


     Atomic displacements:
     There are    1 irreducible representations

     Representation     1      3 modes -  To be done



     Alpha used in Ewald sum =   2.4000
     PHONON       :      0.47s CPU      0.59s WALL



     Representation #   1 modes #   1   2   3

     Self-consistent Calculation
 
     Pert. #  1: Fermi energy shift (Ry) =     3.4466E-26    -1.0031E-36
     Pert. #  2: Fermi energy shift (Ry) =    -1.6371E-25    -7.3664E-37
     Pert. #  3: Fermi energy shift (Ry) =     8.6165E-27    -2.1002E-36

      iter #   1 total cpu time :     9.3 secs   av.it.:   8.7
      thresh= 1.000E-02 alpha_mix =  0.700 |ddv_scf|^2 =  4.127E-06
 
     Pert. #  1: Fermi energy shift (Ry) =    -1.2408E-24    -2.5077E-37
     Pert. #  2: Fermi energy shift (Ry) =    -4.4806E-25     5.0938E-38
     Pert. #  3: Fermi energy shift (Ry) =    -3.7912E-25     1.5673E-38

      iter #   2 total cpu time :    21.0 secs   av.it.:  13.8
      thresh= 2.032E-04 alpha_mix =  0.700 |ddv_scf|^2 =  1.115E-06
 
     Pert. #  1: Fermi energy shift (Ry) =    -4.8252E-25     1.9592E-38
     Pert. #  2: Fermi energy shift (Ry) =    -6.8932E-26    -1.9592E-38
     Pert. #  3: Fermi energy shift (Ry) =     1.0340E-25    -6.6611E-38

      iter #   3 total cpu time :    32.2 secs   av.it.:  13.2
      thresh= 1.056E-04 alpha_mix =  0.700 |ddv_scf|^2 =  7.831E-11
 
     Pert. #  1: Fermi energy shift (Ry) =    -3.4466E-26     3.0612E-41
     Pert. #  2: Fermi energy shift (Ry) =     5.1699E-26    -2.1428E-40
     Pert. #  3: Fermi energy shift (Ry) =     1.1201E-25     3.6734E-40

      iter #   4 total cpu time :    43.2 secs   av.it.:  12.8
      thresh= 8.849E-07 alpha_mix =  0.700 |ddv_scf|^2 =  1.151E-12
 
     Pert. #  1: Fermi energy shift (Ry) =    -4.4806E-25    -5.7397E-41
     Pert. #  2: Fermi energy shift (Ry) =    -3.4466E-26    -1.9132E-42
     Pert. #  3: Fermi energy shift (Ry) =     3.7912E-25     1.0523E-41

      iter #   5 total cpu time :    53.4 secs   av.it.:  11.6
      thresh= 1.073E-07 alpha_mix =  0.700 |ddv_scf|^2 =  4.459E-14
 
     Pert. #  1: Fermi energy shift (Ry) =    -6.8932E-26     5.6441E-41
     Pert. #  2: Fermi energy shift (Ry) =     1.2063E-25    -5.9310E-41
     Pert. #  3: Fermi energy shift (Ry) =    -2.1541E-25    -2.5829E-41

      iter #   6 total cpu time :    64.5 secs   av.it.:  12.9
      thresh= 2.112E-08 alpha_mix =  0.700 |ddv_scf|^2 =  4.508E-17
 
     Pert. #  1: Fermi energy shift (Ry) =     4.8252E-25    -2.0328E-42
     Pert. #  2: Fermi energy shift (Ry) =     0.0000E+00    -4.1852E-41
     Pert. #  3: Fermi energy shift (Ry) =     1.7233E-26    -4.6635E-42

      iter #   7 total cpu time :    75.4 secs   av.it.:  12.6
      thresh= 6.714E-10 alpha_mix =  0.700 |ddv_scf|^2 =  2.476E-19
 
     Pert. #  1: Fermi energy shift (Ry) =     6.8932E-26    -2.0328E-42
     Pert. #  2: Fermi energy shift (Ry) =    -8.6165E-26    -4.1852E-41
     Pert. #  3: Fermi energy shift (Ry) =     1.7233E-26    -4.6635E-42

      iter #   8 total cpu time :    85.5 secs   av.it.:  11.8
      thresh= 4.976E-11 alpha_mix =  0.700 |ddv_scf|^2 =  1.149E-20
 
     Pert. #  1: Fermi energy shift (Ry) =     6.8932E-26    -2.0328E-42
     Pert. #  2: Fermi energy shift (Ry) =    -1.7233E-26    -4.1852E-41
     Pert. #  3: Fermi energy shift (Ry) =     1.8095E-25    -4.6635E-42

      iter #   9 total cpu time :    96.5 secs   av.it.:  12.7
      thresh= 1.072E-11 alpha_mix =  0.700 |ddv_scf|^2 =  2.259E-22
 
     Pert. #  1: Fermi energy shift (Ry) =    -3.4466E-26    -2.0328E-42
     Pert. #  2: Fermi energy shift (Ry) =     1.3786E-25    -4.1852E-41
     Pert. #  3: Fermi energy shift (Ry) =     6.8932E-26    -4.6635E-42

      iter #  10 total cpu time :   107.8 secs   av.it.:  13.2
      thresh= 1.503E-12 alpha_mix =  0.700 |ddv_scf|^2 =  2.656E-24

     End of self-consistent calculation

     Convergence has been achieved 
 
     Number of q in the star =    1
     List of q in the star:
          1   0.000000000   0.000000000   0.000000000

     Diagonalizing the dynamical matrix

     q = (    0.000000000   0.000000000   0.000000000 ) 

 **************************************************************************
     freq (    1) =      -0.133854 [THz] =      -4.464898 [cm-1]
     freq (    2) =      -0.133854 [THz] =      -4.464898 [cm-1]
     freq (    3) =      -0.133854 [THz] =      -4.464898 [cm-1]
 **************************************************************************

     Mode symmetry, O_h (m-3m)  point group:

     freq (   1-   3) =         -4.5  [cm-1]   --> T_1u G_15  G_4- I  

     Calculation of q =   -0.3333333   0.3333333  -0.3333333

     Subspace diagonalization in iterative solution of the eigenvalue problem:
     a serial algorithm will be used

 
     G-vector sticks info
     --------------------
     sticks:   dense  smooth     PW     G-vecs:    dense   smooth      PW
     Sum         703     703    241                12387    12387    2445
 

     Title: 
     --                                                                         


     bravais-lattice index     =            2
     lattice parameter (alat)  =       9.2700  a.u.
     unit-cell volume          =     199.1495 (a.u.)^3
     number of atoms/cell      =            1
     number of atomic types    =            1
     number of electrons       =        14.00
     number of Kohn-Sham states=           11
     kinetic-energy cutoff     =      60.0000  Ry
     charge density cutoff     =     240.0000  Ry
     Exchange-correlation= PZ
                           (   1   1   0   0   0   0   0)

     celldm(1)=   9.270000  celldm(2)=   0.000000  celldm(3)=   0.000000
     celldm(4)=   0.000000  celldm(5)=   0.000000  celldm(6)=   0.000000

     crystal axes: (cart. coord. in units of alat)
               a(1) = (  -0.500000   0.000000   0.500000 )  
               a(2) = (   0.000000   0.500000   0.500000 )  
               a(3) = (  -0.500000   0.500000   0.000000 )  

     reciprocal axes: (cart. coord. in units 2 pi/alat)
               b(1) = ( -1.000000 -1.000000  1.000000 )  
               b(2) = (  1.000000  1.000000  1.000000 )  
               b(3) = ( -1.000000  1.000000 -1.000000 )  


     PseudoPot. # 1 for Pb read from file:
     ../../../pseudo/pb_s.UPF
     MD5 check sum: 7774f596943a2055f0d8d19eea6f2ae8
     Pseudo is Norm-conserving, Zval = 14.0
     Generated using "atomic" code by A. Dal Corso  (Quantum ESPRESSO distribution)
     Using radial grid of 1281 points,  2 beta functions with: 
                l(1) =   2
                l(2) =   1

     atomic species   valence    mass     pseudopotential
        Pb            14.00   207.20000     Pb( 1.00)

     48 Sym. Ops., with inversion, found



   Cartesian axes

     site n.     atom                  positions (alat units)
         1           Pb  tau(   1) = (   0.0000000   0.0000000   0.0000000  )

     number of k points=   728  Methfessel-Paxton smearing, width (Ry)=  0.0250

     Number of k-points >= 100: set verbosity='high' to print them.

     Dense  grid:    12387 G-vectors     FFT dimensions: (  36,  36,  36)

     Estimated max dynamical RAM per process >       7.61 MB

     Estimated total dynamical RAM >      15.22 MB

     The potential is recalculated from file :
     ./temp/_ph0/pb.q_2/pb.save/charge-density

     Starting wfcs are    9 atomic +    2 random wfcs

     Band Structure Calculation
     Davidson diagonalization with overlap

     ethr =  7.14E-11,  avg # of iterations = 16.1

     total cpu time spent up to now is       41.2 secs

     End of band structure calculation

     Number of k-points >= 100: set verbosity='high' to print the bands.

     the Fermi energy is    11.3616 ev

     --                                                                         

     bravais-lattice index     =            2
     lattice parameter (alat)  =       9.2700  a.u.
     unit-cell volume          =     199.1495 (a.u.)^3
     number of atoms/cell      =            1
     number of atomic types    =            1
     kinetic-energy cut-off    =      60.0000  Ry
     charge density cut-off    =     240.0000  Ry
     convergence threshold     =      1.0E-22
     beta                      =       0.7000
     number of iterations used =            4
     Exchange-correlation= PZ
                           (   1   1   0   0   0   0   0)


     celldm(1)=    9.27000  celldm(2)=    0.00000  celldm(3)=    0.00000
     celldm(4)=    0.00000  celldm(5)=    0.00000  celldm(6)=    0.00000

     crystal axes: (cart. coord. in units of alat)
               a(1) = ( -0.5000  0.0000  0.5000 )  
               a(2) = (  0.0000  0.5000  0.5000 )  
               a(3) = ( -0.5000  0.5000  0.0000 )  

     reciprocal axes: (cart. coord. in units 2 pi/alat)
               b(1) = ( -1.0000 -1.0000  1.0000 )  
               b(2) = (  1.0000  1.0000  1.0000 )  
               b(3) = ( -1.0000  1.0000 -1.0000 )  


     Atoms inside the unit cell: 

     Cartesian axes

     site n.  atom      mass           positions (alat units)
        1     Pb 207.2000   tau(    1) = (    0.00000    0.00000    0.00000  )

     Computing dynamical matrix for 
                    q = (  -0.3333333   0.3333333  -0.3333333 )
 
      6 Sym.Ops. (no q -> -q+G )


     G cutoff =  522.4094  (  12387 G-vectors)     FFT grid: ( 36, 36, 36)

     number of k points=   728  Methfessel-Paxton smearing, width (Ry)=  0.0250

     PseudoPot. # 1 for Pb read from file:
     ../../../pseudo/pb_s.UPF
     MD5 check sum: 7774f596943a2055f0d8d19eea6f2ae8
     Pseudo is Norm-conserving, Zval = 14.0
     Generated using "atomic" code by A. Dal Corso  (Quantum ESPRESSO distribution)
     Using radial grid of 1281 points,  2 beta functions with: 
                l(1) =   2
                l(2) =   1

     Mode symmetry, C_3v (3m)   point group:


     Atomic displacements:
     There are    2 irreducible representations

     Representation     1      1 modes -  To be done

     Representation     2      2 modes -  To be done



     Alpha used in Ewald sum =   2.4000
     PHONON       :   2m28.19s CPU   2m29.70s WALL



     Representation #   1 mode #   1

     Self-consistent Calculation

      iter #   1 total cpu time :   164.8 secs   av.it.:   9.6
      thresh= 1.000E-02 alpha_mix =  0.700 |ddv_scf|^2 =  5.079E-03

      iter #   2 total cpu time :   181.0 secs   av.it.:  11.1
      thresh= 7.127E-03 alpha_mix =  0.700 |ddv_scf|^2 =  8.944E-02

      iter #   3 total cpu time :   195.9 secs   av.it.:   9.9
      thresh= 1.000E-02 alpha_mix =  0.700 |ddv_scf|^2 =  3.419E-05

      iter #   4 total cpu time :   212.3 secs   av.it.:  11.3
      thresh= 5.848E-04 alpha_mix =  0.700 |ddv_scf|^2 =  2.577E-07

      iter #   5 total cpu time :   228.0 secs   av.it.:  10.8
      thresh= 5.076E-05 alpha_mix =  0.700 |ddv_scf|^2 =  1.325E-10

      iter #   6 total cpu time :   245.4 secs   av.it.:  12.2
      thresh= 1.151E-06 alpha_mix =  0.700 |ddv_scf|^2 =  9.017E-11

      iter #   7 total cpu time :   260.7 secs   av.it.:  10.4
      thresh= 9.496E-07 alpha_mix =  0.700 |ddv_scf|^2 =  1.733E-10

      iter #   8 total cpu time :   275.8 secs   av.it.:   8.7
      thresh= 1.316E-06 alpha_mix =  0.700 |ddv_scf|^2 =  3.643E-13

      iter #   9 total cpu time :   292.4 secs   av.it.:  11.4
      thresh= 6.036E-08 alpha_mix =  0.700 |ddv_scf|^2 =  2.232E-14

      iter #  10 total cpu time :   308.2 secs   av.it.:  10.7
      thresh= 1.494E-08 alpha_mix =  0.700 |ddv_scf|^2 =  5.698E-16

      iter #  11 total cpu time :   324.7 secs   av.it.:  11.3
      thresh= 2.387E-09 alpha_mix =  0.700 |ddv_scf|^2 =  3.665E-16

      iter #  12 total cpu time :   340.6 secs   av.it.:  10.9
      thresh= 1.914E-09 alpha_mix =  0.700 |ddv_scf|^2 =  3.145E-18

      iter #  13 total cpu time :   356.4 secs   av.it.:  10.7
      thresh= 1.773E-10 alpha_mix =  0.700 |ddv_scf|^2 =  9.787E-20

      iter #  14 total cpu time :   373.5 secs   av.it.:  11.9
      thresh= 3.128E-11 alpha_mix =  0.700 |ddv_scf|^2 =  2.101E-19

      iter #  15 total cpu time :   388.3 secs   av.it.:   9.8
      thresh= 4.583E-11 alpha_mix =  0.700 |ddv_scf|^2 =  2.740E-19

      iter #  16 total cpu time :   402.8 secs   av.it.:   9.5
      thresh= 5.235E-11 alpha_mix =  0.700 |ddv_scf|^2 =  5.273E-21

      iter #  17 total cpu time :   418.5 secs   av.it.:   9.9
      thresh= 7.262E-12 alpha_mix =  0.700 |ddv_scf|^2 =  4.039E-22

      iter #  18 total cpu time :   437.2 secs   av.it.:  10.1
      thresh= 2.010E-12 alpha_mix =  0.700 |ddv_scf|^2 =  1.332E-23

     End of self-consistent calculation

     Convergence has been achieved 


     Representation #   2 modes #   2   3

     Self-consistent Calculation

      iter #   1 total cpu time :   465.9 secs   av.it.:   8.8
      thresh= 1.000E-02 alpha_mix =  0.700 |ddv_scf|^2 =  1.060E-05

      iter #   2 total cpu time :   503.0 secs   av.it.:  13.1
      thresh= 3.256E-04 alpha_mix =  0.700 |ddv_scf|^2 =  3.195E-06

      iter #   3 total cpu time :   539.0 secs   av.it.:  12.5
      thresh= 1.787E-04 alpha_mix =  0.700 |ddv_scf|^2 =  1.723E-10

      iter #   4 total cpu time :   573.9 secs   av.it.:  12.2
      thresh= 1.313E-06 alpha_mix =  0.700 |ddv_scf|^2 =  3.623E-12

      iter #   5 total cpu time :   607.1 secs   av.it.:  11.4
      thresh= 1.904E-07 alpha_mix =  0.700 |ddv_scf|^2 =  1.014E-13

      iter #   6 total cpu time :   642.5 secs   av.it.:  12.4
      thresh= 3.184E-08 alpha_mix =  0.700 |ddv_scf|^2 =  1.391E-16

      iter #   7 total cpu time :   678.1 secs   av.it.:  12.5
      thresh= 1.180E-09 alpha_mix =  0.700 |ddv_scf|^2 =  3.024E-18

      iter #   8 total cpu time :   713.3 secs   av.it.:  12.3
      thresh= 1.739E-10 alpha_mix =  0.700 |ddv_scf|^2 =  3.573E-20

      iter #   9 total cpu time :   750.6 secs   av.it.:  13.2
      thresh= 1.890E-11 alpha_mix =  0.700 |ddv_scf|^2 =  1.350E-21

      iter #  10 total cpu time :   787.8 secs   av.it.:  13.1
      thresh= 3.674E-12 alpha_mix =  0.700 |ddv_scf|^2 =  1.555E-22

      iter #  11 total cpu time :   824.0 secs   av.it.:  12.7
      thresh= 1.247E-12 alpha_mix =  0.700 |ddv_scf|^2 =  1.235E-24

     End of self-consistent calculation

     Convergence has been achieved 
 
     Number of q in the star =    8
     List of q in the star:
          1  -0.333333333   0.333333333  -0.333333333
          2   0.333333333   0.333333333  -0.333333333
          3   0.333333333   0.333333333   0.333333333
          4  -0.333333333   0.333333333   0.333333333
          5   0.333333333  -0.333333333   0.333333333
          6  -0.333333333  -0.333333333  -0.333333333
          7   0.333333333  -0.333333333  -0.333333333
          8  -0.333333333  -0.333333333   0.333333333

     Diagonalizing the dynamical matrix

     q = (   -0.333333333   0.333333333  -0.333333333 ) 

 **************************************************************************
     freq (    1) =       0.760741 [THz] =      25.375576 [cm-1]
     freq (    2) =       0.760741 [THz] =      25.375576 [cm-1]
     freq (    3) =       1.727621 [THz] =      57.627218 [cm-1]
 **************************************************************************

     Mode symmetry, C_3v (3m)   point group:

     freq (   1-   2) =         25.4  [cm-1]   --> E    L_3           
     freq (   3-   3) =         57.6  [cm-1]   --> A_1  L_1           

     Calculation of q =    0.0000000   0.6666667   0.0000000
 
     G-vector sticks info
     --------------------
     sticks:   dense  smooth     PW     G-vecs:    dense   smooth      PW
     Sum         703     703    241                12387    12387    2421
 

     Title: 
     --                                                                         


     bravais-lattice index     =            2
     lattice parameter (alat)  =       9.2700  a.u.
     unit-cell volume          =     199.1495 (a.u.)^3
     number of atoms/cell      =            1
     number of atomic types    =            1
     number of electrons       =        14.00
     number of Kohn-Sham states=           11
     kinetic-energy cutoff     =      60.0000  Ry
     charge density cutoff     =     240.0000  Ry
     Exchange-correlation= PZ
                           (   1   1   0   0   0   0   0)

     celldm(1)=   9.270000  celldm(2)=   0.000000  celldm(3)=   0.000000
     celldm(4)=   0.000000  celldm(5)=   0.000000  celldm(6)=   0.000000

     crystal axes: (cart. coord. in units of alat)
               a(1) = (  -0.500000   0.000000   0.500000 )  
               a(2) = (   0.000000   0.500000   0.500000 )  
               a(3) = (  -0.500000   0.500000   0.000000 )  

     reciprocal axes: (cart. coord. in units 2 pi/alat)
               b(1) = ( -1.000000 -1.000000  1.000000 )  
               b(2) = (  1.000000  1.000000  1.000000 )  
               b(3) = ( -1.000000  1.000000 -1.000000 )  


     PseudoPot. # 1 for Pb read from file:
     ../../../pseudo/pb_s.UPF
     MD5 check sum: 7774f596943a2055f0d8d19eea6f2ae8
     Pseudo is Norm-conserving, Zval = 14.0
     Generated using "atomic" code by A. Dal Corso  (Quantum ESPRESSO distribution)
     Using radial grid of 1281 points,  2 beta functions with: 
                l(1) =   2
                l(2) =   1

     atomic species   valence    mass     pseudopotential
        Pb            14.00   207.20000     Pb( 1.00)

     48 Sym. Ops., with inversion, found



   Cartesian axes

     site n.     atom                  positions (alat units)
         1           Pb  tau(   1) = (   0.0000000   0.0000000   0.0000000  )

     number of k points=   588  Methfessel-Paxton smearing, width (Ry)=  0.0250

     Number of k-points >= 100: set verbosity='high' to print them.

     Dense  grid:    12387 G-vectors     FFT dimensions: (  36,  36,  36)

     Estimated max dynamical RAM per process >       7.61 MB

     Estimated total dynamical RAM >      15.22 MB

     The potential is recalculated from file :
     ./temp/_ph0/pb.q_3/pb.save/charge-density

     Starting wfcs are    9 atomic +    2 random wfcs

     Band Structure Calculation
     Davidson diagonalization with overlap

     ethr =  7.14E-11,  avg # of iterations = 15.7

     total cpu time spent up to now is       73.6 secs

     End of band structure calculation

     Number of k-points >= 100: set verbosity='high' to print the bands.

     the Fermi energy is    11.3616 ev

     --                                                                         

     bravais-lattice index     =            2
     lattice parameter (alat)  =       9.2700  a.u.
     unit-cell volume          =     199.1495 (a.u.)^3
     number of atoms/cell      =            1
     number of atomic types    =            1
     kinetic-energy cut-off    =      60.0000  Ry
     charge density cut-off    =     240.0000  Ry
     convergence threshold     =      1.0E-22
     beta                      =       0.7000
     number of iterations used =            4
     Exchange-correlation= PZ
                           (   1   1   0   0   0   0   0)


     celldm(1)=    9.27000  celldm(2)=    0.00000  celldm(3)=    0.00000
     celldm(4)=    0.00000  celldm(5)=    0.00000  celldm(6)=    0.00000

     crystal axes: (cart. coord. in units of alat)
               a(1) = ( -0.5000  0.0000  0.5000 )  
               a(2) = (  0.0000  0.5000  0.5000 )  
               a(3) = ( -0.5000  0.5000  0.0000 )  

     reciprocal axes: (cart. coord. in units 2 pi/alat)
               b(1) = ( -1.0000 -1.0000  1.0000 )  
               b(2) = (  1.0000  1.0000  1.0000 )  
               b(3) = ( -1.0000  1.0000 -1.0000 )  


     Atoms inside the unit cell: 

     Cartesian axes

     site n.  atom      mass           positions (alat units)
        1     Pb 207.2000   tau(    1) = (    0.00000    0.00000    0.00000  )

     Computing dynamical matrix for 
                    q = (   0.0000000   0.6666667   0.0000000 )
 
      8 Sym.Ops. (no q -> -q+G )


     G cutoff =  522.4094  (  12387 G-vectors)     FFT grid: ( 36, 36, 36)

     number of k points=   588  Methfessel-Paxton smearing, width (Ry)=  0.0250

     PseudoPot. # 1 for Pb read from file:
     ../../../pseudo/pb_s.UPF
     MD5 check sum: 7774f596943a2055f0d8d19eea6f2ae8
     Pseudo is Norm-conserving, Zval = 14.0
     Generated using "atomic" code by A. Dal Corso  (Quantum ESPRESSO distribution)
     Using radial grid of 1281 points,  2 beta functions with: 
                l(1) =   2
                l(2) =   1

     Mode symmetry, C_4v (4mm)  point group:


     Atomic displacements:
     There are    2 irreducible representations

     Representation     1      1 modes -  To be done

     Representation     2      2 modes -  To be done



     Alpha used in Ewald sum =   2.4000
     PHONON       :  14m 9.10s CPU  14m17.01s WALL



     Representation #   1 mode #   1

     Self-consistent Calculation

      iter #   1 total cpu time :   868.9 secs   av.it.:   9.4
      thresh= 1.000E-02 alpha_mix =  0.700 |ddv_scf|^2 =  2.111E-03

      iter #   2 total cpu time :   882.2 secs   av.it.:  11.2
      thresh= 4.595E-03 alpha_mix =  0.700 |ddv_scf|^2 =  1.865E-02

      iter #   3 total cpu time :   893.6 secs   av.it.:   9.4
      thresh= 1.000E-02 alpha_mix =  0.700 |ddv_scf|^2 =  9.640E-06

      iter #   4 total cpu time :   907.1 secs   av.it.:  11.5
      thresh= 3.105E-04 alpha_mix =  0.700 |ddv_scf|^2 =  3.423E-08

      iter #   5 total cpu time :   920.0 secs   av.it.:  11.0
      thresh= 1.850E-05 alpha_mix =  0.700 |ddv_scf|^2 =  1.475E-10

      iter #   6 total cpu time :   933.4 secs   av.it.:  11.7
      thresh= 1.215E-06 alpha_mix =  0.700 |ddv_scf|^2 =  5.509E-11

      iter #   7 total cpu time :   945.8 secs   av.it.:  10.5
      thresh= 7.422E-07 alpha_mix =  0.700 |ddv_scf|^2 =  1.870E-14

      iter #   8 total cpu time :   959.1 secs   av.it.:  11.3
      thresh= 1.368E-08 alpha_mix =  0.700 |ddv_scf|^2 =  4.185E-15

      iter #   9 total cpu time :   971.9 secs   av.it.:  10.9
      thresh= 6.469E-09 alpha_mix =  0.700 |ddv_scf|^2 =  1.268E-15

      iter #  10 total cpu time :   983.3 secs   av.it.:   9.5
      thresh= 3.561E-09 alpha_mix =  0.700 |ddv_scf|^2 =  3.524E-16

      iter #  11 total cpu time :   995.2 secs   av.it.:   9.9
      thresh= 1.877E-09 alpha_mix =  0.700 |ddv_scf|^2 =  1.868E-18

      iter #  12 total cpu time :  1008.7 secs   av.it.:  11.6
      thresh= 1.367E-10 alpha_mix =  0.700 |ddv_scf|^2 =  1.963E-19

      iter #  13 total cpu time :  1022.1 secs   av.it.:  11.5
      thresh= 4.430E-11 alpha_mix =  0.700 |ddv_scf|^2 =  1.942E-20

      iter #  14 total cpu time :  1035.3 secs   av.it.:  11.3
      thresh= 1.393E-11 alpha_mix =  0.700 |ddv_scf|^2 =  9.014E-22

      iter #  15 total cpu time :  1048.6 secs   av.it.:  11.6
      thresh= 3.002E-12 alpha_mix =  0.700 |ddv_scf|^2 =  6.288E-23

     End of self-consistent calculation

     Convergence has been achieved 


     Representation #   2 modes #   2   3

     Self-consistent Calculation

      iter #   1 total cpu time :  1071.6 secs   av.it.:   9.1
      thresh= 1.000E-02 alpha_mix =  0.700 |ddv_scf|^2 =  1.530E-05

      iter #   2 total cpu time :  1101.5 secs   av.it.:  13.3
      thresh= 3.911E-04 alpha_mix =  0.700 |ddv_scf|^2 =  6.145E-06

      iter #   3 total cpu time :  1130.1 secs   av.it.:  12.6
      thresh= 2.479E-04 alpha_mix =  0.700 |ddv_scf|^2 =  3.640E-10

      iter #   4 total cpu time :  1159.0 secs   av.it.:  12.5
      thresh= 1.908E-06 alpha_mix =  0.700 |ddv_scf|^2 =  5.604E-12

      iter #   5 total cpu time :  1186.7 secs   av.it.:  12.0
      thresh= 2.367E-07 alpha_mix =  0.700 |ddv_scf|^2 =  4.716E-14

      iter #   6 total cpu time :  1215.6 secs   av.it.:  12.8
      thresh= 2.172E-08 alpha_mix =  0.700 |ddv_scf|^2 =  9.399E-16

      iter #   7 total cpu time :  1245.0 secs   av.it.:  13.0
      thresh= 3.066E-09 alpha_mix =  0.700 |ddv_scf|^2 =  7.574E-18

      iter #   8 total cpu time :  1274.4 secs   av.it.:  13.0
      thresh= 2.752E-10 alpha_mix =  0.700 |ddv_scf|^2 =  3.189E-19

      iter #   9 total cpu time :  1304.8 secs   av.it.:  13.6
      thresh= 5.647E-11 alpha_mix =  0.700 |ddv_scf|^2 =  1.087E-19

      iter #  10 total cpu time :  1333.7 secs   av.it.:  12.7
      thresh= 3.296E-11 alpha_mix =  0.700 |ddv_scf|^2 =  3.667E-22

      iter #  11 total cpu time :  1363.6 secs   av.it.:  13.3
      thresh= 1.915E-12 alpha_mix =  0.700 |ddv_scf|^2 =  1.035E-23

     End of self-consistent calculation

     Convergence has been achieved 
 
     Number of q in the star =    6
     List of q in the star:
          1   0.000000000   0.666666667   0.000000000
          2  -0.666666667   0.000000000   0.000000000
          3   0.000000000  -0.666666667   0.000000000
          4   0.000000000   0.000000000   0.666666667
          5   0.000000000   0.000000000  -0.666666667
          6   0.666666667   0.000000000   0.000000000

     Diagonalizing the dynamical matrix

     q = (    0.000000000   0.666666667   0.000000000 ) 

 **************************************************************************
     freq (    1) =       0.951527 [THz] =      31.739537 [cm-1]
     freq (    2) =       0.951527 [THz] =      31.739537 [cm-1]
     freq (    3) =       2.056600 [THz] =      68.600797 [cm-1]
 **************************************************************************

     Mode symmetry, C_4v (4mm)  point group:

     freq (   1-   2) =         31.7  [cm-1]   --> E    G_5 D_5       
     freq (   3-   3) =         68.6  [cm-1]   --> A_1  G_1 D_1       

     Calculation of q =    0.6666667  -0.0000000   0.6666667
 
     G-vector sticks info
     --------------------
     sticks:   dense  smooth     PW     G-vecs:    dense   smooth      PW
     Sum         703     703    253                12387    12387    2733
 

     Title: 
     --                                                                         


     bravais-lattice index     =            2
     lattice parameter (alat)  =       9.2700  a.u.
     unit-cell volume          =     199.1495 (a.u.)^3
     number of atoms/cell      =            1
     number of atomic types    =            1
     number of electrons       =        14.00
     number of Kohn-Sham states=           11
     kinetic-energy cutoff     =      60.0000  Ry
     charge density cutoff     =     240.0000  Ry
     Exchange-correlation= PZ
                           (   1   1   0   0   0   0   0)

     celldm(1)=   9.270000  celldm(2)=   0.000000  celldm(3)=   0.000000
     celldm(4)=   0.000000  celldm(5)=   0.000000  celldm(6)=   0.000000

     crystal axes: (cart. coord. in units of alat)
               a(1) = (  -0.500000   0.000000   0.500000 )  
               a(2) = (   0.000000   0.500000   0.500000 )  
               a(3) = (  -0.500000   0.500000   0.000000 )  

     reciprocal axes: (cart. coord. in units 2 pi/alat)
               b(1) = ( -1.000000 -1.000000  1.000000 )  
               b(2) = (  1.000000  1.000000  1.000000 )  
               b(3) = ( -1.000000  1.000000 -1.000000 )  


     PseudoPot. # 1 for Pb read from file:
     ../../../pseudo/pb_s.UPF
     MD5 check sum: 7774f596943a2055f0d8d19eea6f2ae8
     Pseudo is Norm-conserving, Zval = 14.0
     Generated using "atomic" code by A. Dal Corso  (Quantum ESPRESSO distribution)
     Using radial grid of 1281 points,  2 beta functions with: 
                l(1) =   2
                l(2) =   1

     atomic species   valence    mass     pseudopotential
        Pb            14.00   207.20000     Pb( 1.00)

     48 Sym. Ops., with inversion, found



   Cartesian axes

     site n.     atom                  positions (alat units)
         1           Pb  tau(   1) = (   0.0000000   0.0000000   0.0000000  )

     number of k points=  1020  Methfessel-Paxton smearing, width (Ry)=  0.0250

     Number of k-points >= 100: set verbosity='high' to print them.

     Dense  grid:    12387 G-vectors     FFT dimensions: (  36,  36,  36)

     Estimated max dynamical RAM per process >       7.61 MB

     Estimated total dynamical RAM >      15.23 MB

     The potential is recalculated from file :
     ./temp/_ph0/pb.q_4/pb.save/charge-density

     Starting wfcs are    9 atomic +    2 random wfcs

     Band Structure Calculation
     Davidson diagonalization with overlap

     ethr =  7.14E-11,  avg # of iterations = 15.8

     total cpu time spent up to now is      130.2 secs

     End of band structure calculation

     Number of k-points >= 100: set verbosity='high' to print the bands.

     the Fermi energy is    11.3616 ev

     --                                                                         

     bravais-lattice index     =            2
     lattice parameter (alat)  =       9.2700  a.u.
     unit-cell volume          =     199.1495 (a.u.)^3
     number of atoms/cell      =            1
     number of atomic types    =            1
     kinetic-energy cut-off    =      60.0000  Ry
     charge density cut-off    =     240.0000  Ry
     convergence threshold     =      1.0E-22
     beta                      =       0.7000
     number of iterations used =            4
     Exchange-correlation= PZ
                           (   1   1   0   0   0   0   0)


     celldm(1)=    9.27000  celldm(2)=    0.00000  celldm(3)=    0.00000
     celldm(4)=    0.00000  celldm(5)=    0.00000  celldm(6)=    0.00000

     crystal axes: (cart. coord. in units of alat)
               a(1) = ( -0.5000  0.0000  0.5000 )  
               a(2) = (  0.0000  0.5000  0.5000 )  
               a(3) = ( -0.5000  0.5000  0.0000 )  

     reciprocal axes: (cart. coord. in units 2 pi/alat)
               b(1) = ( -1.0000 -1.0000  1.0000 )  
               b(2) = (  1.0000  1.0000  1.0000 )  
               b(3) = ( -1.0000  1.0000 -1.0000 )  


     Atoms inside the unit cell: 

     Cartesian axes

     site n.  atom      mass           positions (alat units)
        1     Pb 207.2000   tau(    1) = (    0.00000    0.00000    0.00000  )

     Computing dynamical matrix for 
                    q = (   0.6666667  -0.0000000   0.6666667 )
 
      4 Sym.Ops. (no q -> -q+G )


     G cutoff =  522.4094  (  12387 G-vectors)     FFT grid: ( 36, 36, 36)

     number of k points=  1020  Methfessel-Paxton smearing, width (Ry)=  0.0250

     PseudoPot. # 1 for Pb read from file:
     ../../../pseudo/pb_s.UPF
     MD5 check sum: 7774f596943a2055f0d8d19eea6f2ae8
     Pseudo is Norm-conserving, Zval = 14.0
     Generated using "atomic" code by A. Dal Corso  (Quantum ESPRESSO distribution)
     Using radial grid of 1281 points,  2 beta functions with: 
                l(1) =   2
                l(2) =   1

     Mode symmetry, C_2v (mm2)  point group:


     Atomic displacements:
     There are    3 irreducible representations

     Representation     1      1 modes -  To be done

     Representation     2      1 modes -  To be done

     Representation     3      1 modes -  To be done



     Alpha used in Ewald sum =   2.4000
     PHONON       :  23m28.06s CPU  23m41.02s WALL



     Representation #   1 mode #   1

     Self-consistent Calculation

      iter #   1 total cpu time :  1441.3 secs   av.it.:   9.3
      thresh= 1.000E-02 alpha_mix =  0.700 |ddv_scf|^2 =  3.358E-04

      iter #   2 total cpu time :  1464.8 secs   av.it.:  11.8
      thresh= 1.832E-03 alpha_mix =  0.700 |ddv_scf|^2 =  5.807E-04

      iter #   3 total cpu time :  1486.2 secs   av.it.:  10.5
      thresh= 2.410E-03 alpha_mix =  0.700 |ddv_scf|^2 =  2.565E-06

      iter #   4 total cpu time :  1508.5 secs   av.it.:  11.0
      thresh= 1.602E-04 alpha_mix =  0.700 |ddv_scf|^2 =  3.714E-08

      iter #   5 total cpu time :  1530.7 secs   av.it.:  11.0
      thresh= 1.927E-05 alpha_mix =  0.700 |ddv_scf|^2 =  7.119E-11

      iter #   6 total cpu time :  1554.0 secs   av.it.:  11.6
      thresh= 8.438E-07 alpha_mix =  0.700 |ddv_scf|^2 =  3.845E-12

      iter #   7 total cpu time :  1576.4 secs   av.it.:  11.1
      thresh= 1.961E-07 alpha_mix =  0.700 |ddv_scf|^2 =  2.331E-14

      iter #   8 total cpu time :  1600.0 secs   av.it.:  11.9
      thresh= 1.527E-08 alpha_mix =  0.700 |ddv_scf|^2 =  7.577E-16

      iter #   9 total cpu time :  1623.9 secs   av.it.:  12.1
      thresh= 2.753E-09 alpha_mix =  0.700 |ddv_scf|^2 =  2.253E-16

      iter #  10 total cpu time :  1646.8 secs   av.it.:  11.4
      thresh= 1.501E-09 alpha_mix =  0.700 |ddv_scf|^2 =  1.606E-16

      iter #  11 total cpu time :  1668.5 secs   av.it.:  10.7
      thresh= 1.267E-09 alpha_mix =  0.700 |ddv_scf|^2 =  7.469E-19

      iter #  12 total cpu time :  1691.9 secs   av.it.:  11.6
      thresh= 8.642E-11 alpha_mix =  0.700 |ddv_scf|^2 =  1.787E-19

      iter #  13 total cpu time :  1714.5 secs   av.it.:  11.2
      thresh= 4.228E-11 alpha_mix =  0.700 |ddv_scf|^2 =  1.366E-20

      iter #  14 total cpu time :  1737.9 secs   av.it.:  11.7
      thresh= 1.169E-11 alpha_mix =  0.700 |ddv_scf|^2 =  7.346E-22

      iter #  15 total cpu time :  1761.1 secs   av.it.:  11.6
      thresh= 2.710E-12 alpha_mix =  0.700 |ddv_scf|^2 =  1.716E-23

     End of self-consistent calculation

     Convergence has been achieved 


     Representation #   2 mode #   2

     Self-consistent Calculation

      iter #   1 total cpu time :  1782.5 secs   av.it.:   8.9
      thresh= 1.000E-02 alpha_mix =  0.700 |ddv_scf|^2 =  5.478E-05

      iter #   2 total cpu time :  1807.6 secs   av.it.:  12.1
      thresh= 7.402E-04 alpha_mix =  0.700 |ddv_scf|^2 =  2.021E-05

      iter #   3 total cpu time :  1830.7 secs   av.it.:  11.4
      thresh= 4.496E-04 alpha_mix =  0.700 |ddv_scf|^2 =  9.964E-10

      iter #   4 total cpu time :  1854.5 secs   av.it.:  11.6
      thresh= 3.157E-06 alpha_mix =  0.700 |ddv_scf|^2 =  2.216E-11

      iter #   5 total cpu time :  1877.0 secs   av.it.:  11.0
      thresh= 4.708E-07 alpha_mix =  0.700 |ddv_scf|^2 =  3.038E-13

      iter #   6 total cpu time :  1904.8 secs   av.it.:  11.4
      thresh= 5.512E-08 alpha_mix =  0.700 |ddv_scf|^2 =  2.210E-15

      iter #   7 total cpu time :  1930.2 secs   av.it.:  11.8
      thresh= 4.701E-09 alpha_mix =  0.700 |ddv_scf|^2 =  3.605E-17

      iter #   8 total cpu time :  1953.9 secs   av.it.:  11.5
      thresh= 6.004E-10 alpha_mix =  0.700 |ddv_scf|^2 =  4.292E-19

      iter #   9 total cpu time :  1978.1 secs   av.it.:  12.0
      thresh= 6.552E-11 alpha_mix =  0.700 |ddv_scf|^2 =  5.848E-21

      iter #  10 total cpu time :  2002.4 secs   av.it.:  12.0
      thresh= 7.647E-12 alpha_mix =  0.700 |ddv_scf|^2 =  5.045E-22

      iter #  11 total cpu time :  2026.0 secs   av.it.:  11.8
      thresh= 2.246E-12 alpha_mix =  0.700 |ddv_scf|^2 =  4.364E-24

     End of self-consistent calculation

     Convergence has been achieved 


     Representation #   3 mode #   3

     Self-consistent Calculation

      iter #   1 total cpu time :  2046.3 secs   av.it.:   9.2
      thresh= 1.000E-02 alpha_mix =  0.700 |ddv_scf|^2 =  2.025E-04

      iter #   2 total cpu time :  2070.2 secs   av.it.:  12.0
      thresh= 1.423E-03 alpha_mix =  0.700 |ddv_scf|^2 =  2.038E-04

      iter #   3 total cpu time :  2092.3 secs   av.it.:  10.9
      thresh= 1.428E-03 alpha_mix =  0.700 |ddv_scf|^2 =  5.378E-08

      iter #   4 total cpu time :  2115.3 secs   av.it.:  11.5
      thresh= 2.319E-05 alpha_mix =  0.700 |ddv_scf|^2 =  1.147E-10

      iter #   5 total cpu time :  2138.2 secs   av.it.:  11.3
      thresh= 1.071E-06 alpha_mix =  0.700 |ddv_scf|^2 =  2.379E-12

      iter #   6 total cpu time :  2160.5 secs   av.it.:  11.0
      thresh= 1.542E-07 alpha_mix =  0.700 |ddv_scf|^2 =  1.472E-14

      iter #   7 total cpu time :  2184.3 secs   av.it.:  11.8
      thresh= 1.213E-08 alpha_mix =  0.700 |ddv_scf|^2 =  8.794E-17

      iter #   8 total cpu time :  2207.9 secs   av.it.:  11.9
      thresh= 9.378E-10 alpha_mix =  0.700 |ddv_scf|^2 =  2.905E-18

      iter #   9 total cpu time :  2231.2 secs   av.it.:  11.7
      thresh= 1.704E-10 alpha_mix =  0.700 |ddv_scf|^2 =  1.308E-20

      iter #  10 total cpu time :  2255.2 secs   av.it.:  11.9
      thresh= 1.144E-11 alpha_mix =  0.700 |ddv_scf|^2 =  5.886E-21

      iter #  11 total cpu time :  2277.8 secs   av.it.:  11.2
      thresh= 7.672E-12 alpha_mix =  0.700 |ddv_scf|^2 =  5.016E-22

      iter #  12 total cpu time :  2300.7 secs   av.it.:  11.3
      thresh= 2.240E-12 alpha_mix =  0.700 |ddv_scf|^2 =  1.419E-24

     End of self-consistent calculation

     Convergence has been achieved 
 
     Number of q in the star =   12
     List of q in the star:
          1   0.666666667   0.000000000   0.666666667
          2   0.666666667   0.000000000  -0.666666667
          3  -0.666666667   0.000000000  -0.666666667
          4  -0.666666667   0.000000000   0.666666667
          5   0.000000000  -0.666666667   0.666666667
          6  -0.666666667   0.666666667   0.000000000
          7  -0.666666667  -0.666666667   0.000000000
          8   0.666666667   0.666666667   0.000000000
          9   0.666666667  -0.666666667   0.000000000
         10   0.000000000   0.666666667   0.666666667
         11   0.000000000   0.666666667  -0.666666667
         12   0.000000000  -0.666666667  -0.666666667

     Diagonalizing the dynamical matrix

     q = (    0.666666667  -0.000000000   0.666666667 ) 

 **************************************************************************
     freq (    1) =       1.334032 [THz] =      44.498512 [cm-1]
     freq (    2) =       1.799310 [THz] =      60.018517 [cm-1]
     freq (    3) =       1.855040 [THz] =      61.877478 [cm-1]
 **************************************************************************

     Mode symmetry, C_2v (mm2)  point group:

     freq (   1-   1) =         44.5  [cm-1]   --> B_1  D_3  S_3      
     freq (   2-   2) =         60.0  [cm-1]   --> A_1  D_1  S_1      
     freq (   3-   3) =         61.9  [cm-1]   --> B_2  D_4  S_4      
 
     init_run     :      0.42s CPU      0.43s WALL (       3 calls)
     electrons    :    128.77s CPU    129.72s WALL (       3 calls)

     Called by init_run:
     wfcinit      :      0.00s CPU      0.00s WALL (       3 calls)
     potinit      :      0.01s CPU      0.01s WALL (       3 calls)
     hinit0       :      0.19s CPU      0.19s WALL (       3 calls)

     Called by electrons:
     c_bands      :    128.75s CPU    129.71s WALL (       3 calls)
     v_of_rho     :      0.01s CPU      0.01s WALL (       4 calls)

     Called by c_bands:
     init_us_2    :      6.16s CPU      6.30s WALL (   23053 calls)
     cegterg      :    113.30s CPU    114.00s WALL (    1283 calls)

     Called by *egterg:
     cdiaghg      :      4.93s CPU      4.99s WALL (   20272 calls)
     h_psi        :   1751.80s CPU   1764.03s WALL (  340617 calls)
     g_psi        :      1.13s CPU      1.14s WALL (   19104 calls)

     Called by h_psi:
     h_psi:calbec :     13.48s CPU     13.57s WALL (  340617 calls)
     vloc_psi     :   1719.11s CPU   1731.04s WALL (  340617 calls)
     add_vuspsi   :     12.86s CPU     13.06s WALL (  340617 calls)

     General routines
     calbec       :     24.72s CPU     25.06s WALL (  673355 calls)
     fft          :      0.20s CPU      0.21s WALL (     511 calls)
     ffts         :      0.75s CPU      0.81s WALL (    2127 calls)
     fftw         :   1777.21s CPU   1792.64s WALL ( 4775454 calls)
     davcio       :      8.33s CPU      9.36s WALL (  111735 calls)
 
     Parallel routines
 
     PHONON       :  37m59.34s CPU  38m20.91s WALL

     INITIALIZATION: 
     phq_setup    :      0.02s CPU      0.02s WALL (       4 calls)
     phq_init     :      1.60s CPU      1.73s WALL (       4 calls)
 
     phq_init     :      1.60s CPU      1.73s WALL (       4 calls)
     init_vloc    :      0.01s CPU      0.01s WALL (       4 calls)
     init_us_1    :      0.12s CPU      0.12s WALL (       4 calls)
 
     DYNAMICAL MATRIX:
     dynmat0      :      0.81s CPU      0.85s WALL (       4 calls)
     phqscf       :   2148.25s CPU   2168.45s WALL (       4 calls)
     dynmatrix    :      0.00s CPU      0.00s WALL (       4 calls)
 
     phqscf       :   2148.25s CPU   2168.45s WALL (       4 calls)
     solve_linter :   2147.08s CPU   2167.15s WALL (       8 calls)
     drhodv       :      1.17s CPU      1.27s WALL (       8 calls)
 
     dynmat0      :      0.81s CPU      0.85s WALL (       4 calls)
     dynmat_us    :      0.80s CPU      0.85s WALL (       4 calls)
     d2ionq       :      0.00s CPU      0.01s WALL (       4 calls)
 
     dynmat_us    :      0.80s CPU      0.85s WALL (       4 calls)
 
     phqscf       :   2148.25s CPU   2168.45s WALL (       4 calls)
     solve_linter :   2147.08s CPU   2167.15s WALL (       8 calls)
 
     solve_linter :   2147.08s CPU   2167.15s WALL (       8 calls)
     dvqpsi_us    :     19.32s CPU     19.53s WALL (    1860 calls)
     ortho        :      3.38s CPU      3.45s WALL (   23489 calls)
     cgsolve      :   1731.68s CPU   1744.47s WALL (   23489 calls)
     incdrhoscf   :    146.04s CPU    148.25s WALL (   23489 calls)
     vpsifft      :    129.45s CPU    132.78s WALL (   21629 calls)
     dv_of_drho   :      0.21s CPU      0.21s WALL (     145 calls)
     mix_pot      :      0.20s CPU      0.22s WALL (     103 calls)
     ef_shift     :      0.03s CPU      0.05s WALL (      11 calls)
     localdos     :      0.18s CPU      0.19s WALL (       1 calls)
     psymdvscf    :      2.16s CPU      2.16s WALL (     103 calls)
 
     dvqpsi_us    :     19.32s CPU     19.53s WALL (    1860 calls)
     dvqpsi_us_on :      0.73s CPU      0.74s WALL (    1860 calls)
 
     cgsolve      :   1731.68s CPU   1744.47s WALL (   23489 calls)
     ch_psi       :   1703.18s CPU   1715.42s WALL (  319062 calls)
 
     ch_psi       :   1703.18s CPU   1715.42s WALL (  319062 calls)
     h_psi        :   1751.80s CPU   1764.03s WALL (  340617 calls)
     last         :     50.53s CPU     51.16s WALL (  319062 calls)
 
     h_psi        :   1751.80s CPU   1764.03s WALL (  340617 calls)
     add_vuspsi   :     12.86s CPU     13.06s WALL (  340617 calls)
 
     incdrhoscf   :    146.04s CPU    148.25s WALL (   23489 calls)
 
 
      General routines
     calbec       :     24.72s CPU     25.06s WALL (  673355 calls)
     fft          :      0.20s CPU      0.21s WALL (     511 calls)
     ffts         :      0.75s CPU      0.81s WALL (    2127 calls)
     fftw         :   1777.21s CPU   1792.64s WALL ( 4775454 calls)
     davcio       :      8.33s CPU      9.36s WALL (  111735 calls)
     write_rec    :      0.03s CPU      0.25s WALL (     111 calls)
 
 
     PHONON       :  37m59.34s CPU  38m20.91s WALL

 
   This run was terminated on:  18:45:18   9Sep2021            

=------------------------------------------------------------------------------=
   JOB DONE.
=------------------------------------------------------------------------------=
