
     Program PWSCF v.6.7MaX starts on  9Sep2021 at 18:54:31 

     This program is part of the open-source Quantum ESPRESSO suite
     for quantum simulation of materials; please cite
         "P. Giannozzi et al., J. Phys.:Condens. Matter 21 395502 (2009);
         "P. Giannozzi et al., J. Phys.:Condens. Matter 29 465901 (2017);
          URL http://www.quantum-espresso.org", 
     in publications or presentations arising from this work. More details at
     http://www.quantum-espresso.org/quote

     Parallel version (MPI), running on     2 processors

     MPI processes distributed on     1 nodes
     K-points division:     npool     =       2
     Reading input from scf.in

     Current dimensions of program PWSCF are:
     Max number of different atomic species (ntypx) = 10
     Max number of k-points (npk) =  40000
     Max angular momentum in pseudopotentials (lmaxx) =  3

     Subspace diagonalization in iterative solution of the eigenvalue problem:
     a serial algorithm will be used

 
     G-vector sticks info
     --------------------
     sticks:   dense  smooth     PW     G-vecs:    dense   smooth      PW
     Sum         703     703    211                12387    12387    2109
 


     bravais-lattice index     =            2
     lattice parameter (alat)  =       9.2700  a.u.
     unit-cell volume          =     199.1495 (a.u.)^3
     number of atoms/cell      =            1
     number of atomic types    =            1
     number of electrons       =        14.00
     number of Kohn-Sham states=           11
     kinetic-energy cutoff     =      60.0000  Ry
     charge density cutoff     =     240.0000  Ry
     scf convergence threshold =      1.0E-12
     mixing beta               =       0.7000
     number of iterations used =            8  plain     mixing
     Exchange-correlation= PZ
                           (   1   1   0   0   0   0   0)

     celldm(1)=   9.270000  celldm(2)=   0.000000  celldm(3)=   0.000000
     celldm(4)=   0.000000  celldm(5)=   0.000000  celldm(6)=   0.000000

     crystal axes: (cart. coord. in units of alat)
               a(1) = (  -0.500000   0.000000   0.500000 )  
               a(2) = (   0.000000   0.500000   0.500000 )  
               a(3) = (  -0.500000   0.500000   0.000000 )  

     reciprocal axes: (cart. coord. in units 2 pi/alat)
               b(1) = ( -1.000000 -1.000000  1.000000 )  
               b(2) = (  1.000000  1.000000  1.000000 )  
               b(3) = ( -1.000000  1.000000 -1.000000 )  


     PseudoPot. # 1 for Pb read from file:
     ./pb_s.UPF
     MD5 check sum: 7774f596943a2055f0d8d19eea6f2ae8
     Pseudo is Norm-conserving, Zval = 14.0
     Generated using "atomic" code by A. Dal Corso  (Quantum ESPRESSO distribution)
     Using radial grid of 1281 points,  2 beta functions with: 
                l(1) =   2
                l(2) =   1

     atomic species   valence    mass     pseudopotential
        Pb            14.00   207.20000     Pb( 1.00)

     48 Sym. Ops., with inversion, found


                                    s                        frac. trans.

      isym =  1     identity                                     

 cryst.   s( 1) = (     1          0          0      )
                  (     0          1          0      )
                  (     0          0          1      )

 cart.    s( 1) = (  1.0000000  0.0000000  0.0000000 )
                  (  0.0000000  1.0000000  0.0000000 )
                  (  0.0000000  0.0000000  1.0000000 )


      isym =  2     180 deg rotation - cart. axis [0,0,1]        

 cryst.   s( 2) = (     0          1         -1      )
                  (     1          0         -1      )
                  (     0          0         -1      )

 cart.    s( 2) = ( -1.0000000  0.0000000  0.0000000 )
                  (  0.0000000 -1.0000000  0.0000000 )
                  (  0.0000000  0.0000000  1.0000000 )


      isym =  3     180 deg rotation - cart. axis [0,1,0]        

 cryst.   s( 3) = (    -1          0          0      )
                  (    -1          0          1      )
                  (    -1          1          0      )

 cart.    s( 3) = ( -1.0000000  0.0000000  0.0000000 )
                  (  0.0000000  1.0000000  0.0000000 )
                  (  0.0000000  0.0000000 -1.0000000 )


      isym =  4     180 deg rotation - cart. axis [1,0,0]        

 cryst.   s( 4) = (     0         -1          1      )
                  (     0         -1          0      )
                  (     1         -1          0      )

 cart.    s( 4) = (  1.0000000  0.0000000  0.0000000 )
                  (  0.0000000 -1.0000000  0.0000000 )
                  (  0.0000000  0.0000000 -1.0000000 )


      isym =  5     180 deg rotation - cart. axis [1,1,0]        

 cryst.   s( 5) = (     0         -1          0      )
                  (    -1          0          0      )
                  (     0          0         -1      )

 cart.    s( 5) = (  0.0000000  1.0000000  0.0000000 )
                  (  1.0000000  0.0000000  0.0000000 )
                  (  0.0000000  0.0000000 -1.0000000 )


      isym =  6     180 deg rotation - cart. axis [1,-1,0]       

 cryst.   s( 6) = (    -1          0          1      )
                  (     0         -1          1      )
                  (     0          0          1      )

 cart.    s( 6) = (  0.0000000 -1.0000000  0.0000000 )
                  ( -1.0000000  0.0000000  0.0000000 )
                  (  0.0000000  0.0000000 -1.0000000 )


      isym =  7      90 deg rotation - cart. axis [0,0,-1]       

 cryst.   s( 7) = (     0          1          0      )
                  (     0          1         -1      )
                  (    -1          1          0      )

 cart.    s( 7) = (  0.0000000  1.0000000  0.0000000 )
                  ( -1.0000000  0.0000000  0.0000000 )
                  (  0.0000000  0.0000000  1.0000000 )


      isym =  8      90 deg rotation - cart. axis [0,0,1]        

 cryst.   s( 8) = (     1          0         -1      )
                  (     1          0          0      )
                  (     1         -1          0      )

 cart.    s( 8) = (  0.0000000 -1.0000000  0.0000000 )
                  (  1.0000000  0.0000000  0.0000000 )
                  (  0.0000000  0.0000000  1.0000000 )


      isym =  9     180 deg rotation - cart. axis [1,0,1]        

 cryst.   s( 9) = (    -1          0          0      )
                  (     0          0         -1      )
                  (     0         -1          0      )

 cart.    s( 9) = (  0.0000000  0.0000000  1.0000000 )
                  (  0.0000000 -1.0000000  0.0000000 )
                  (  1.0000000  0.0000000  0.0000000 )


      isym = 10     180 deg rotation - cart. axis [-1,0,1]       

 cryst.   s(10) = (     1          0          0      )
                  (     1         -1          0      )
                  (     1          0         -1      )

 cart.    s(10) = (  0.0000000  0.0000000 -1.0000000 )
                  (  0.0000000 -1.0000000  0.0000000 )
                  ( -1.0000000  0.0000000  0.0000000 )


      isym = 11      90 deg rotation - cart. axis [0,1,0]        

 cryst.   s(11) = (     0          1         -1      )
                  (    -1          1          0      )
                  (     0          1          0      )

 cart.    s(11) = (  0.0000000  0.0000000  1.0000000 )
                  (  0.0000000  1.0000000  0.0000000 )
                  ( -1.0000000  0.0000000  0.0000000 )


      isym = 12      90 deg rotation - cart. axis [0,-1,0]       

 cryst.   s(12) = (     0         -1          1      )
                  (     0          0          1      )
                  (    -1          0          1      )

 cart.    s(12) = (  0.0000000  0.0000000 -1.0000000 )
                  (  0.0000000  1.0000000  0.0000000 )
                  (  1.0000000  0.0000000  0.0000000 )


      isym = 13     180 deg rotation - cart. axis [0,1,1]        

 cryst.   s(13) = (    -1          1          0      )
                  (     0          1          0      )
                  (     0          1         -1      )

 cart.    s(13) = ( -1.0000000  0.0000000  0.0000000 )
                  (  0.0000000  0.0000000  1.0000000 )
                  (  0.0000000  1.0000000  0.0000000 )


      isym = 14     180 deg rotation - cart. axis [0,1,-1]       

 cryst.   s(14) = (     0          0         -1      )
                  (     0         -1          0      )
                  (    -1          0          0      )

 cart.    s(14) = ( -1.0000000  0.0000000  0.0000000 )
                  (  0.0000000  0.0000000 -1.0000000 )
                  (  0.0000000 -1.0000000  0.0000000 )


      isym = 15      90 deg rotation - cart. axis [-1,0,0]       

 cryst.   s(15) = (     0          0          1      )
                  (    -1          0          1      )
                  (     0         -1          1      )

 cart.    s(15) = (  1.0000000  0.0000000  0.0000000 )
                  (  0.0000000  0.0000000  1.0000000 )
                  (  0.0000000 -1.0000000  0.0000000 )


      isym = 16      90 deg rotation - cart. axis [1,0,0]        

 cryst.   s(16) = (     1         -1          0      )
                  (     1          0         -1      )
                  (     1          0          0      )

 cart.    s(16) = (  1.0000000  0.0000000  0.0000000 )
                  (  0.0000000  0.0000000 -1.0000000 )
                  (  0.0000000  1.0000000  0.0000000 )


      isym = 17     120 deg rotation - cart. axis [-1,-1,-1]     

 cryst.   s(17) = (    -1          0          1      )
                  (    -1          1          0      )
                  (    -1          0          0      )

 cart.    s(17) = (  0.0000000  1.0000000  0.0000000 )
                  (  0.0000000  0.0000000  1.0000000 )
                  (  1.0000000  0.0000000  0.0000000 )


      isym = 18     120 deg rotation - cart. axis [-1,1,1]       

 cryst.   s(18) = (     0          1          0      )
                  (     0          0          1      )
                  (     1          0          0      )

 cart.    s(18) = (  0.0000000 -1.0000000  0.0000000 )
                  (  0.0000000  0.0000000  1.0000000 )
                  ( -1.0000000  0.0000000  0.0000000 )


      isym = 19     120 deg rotation - cart. axis [1,1,-1]       

 cryst.   s(19) = (     1          0         -1      )
                  (     0          0         -1      )
                  (     0          1         -1      )

 cart.    s(19) = (  0.0000000  1.0000000  0.0000000 )
                  (  0.0000000  0.0000000 -1.0000000 )
                  ( -1.0000000  0.0000000  0.0000000 )


      isym = 20     120 deg rotation - cart. axis [1,-1,1]       

 cryst.   s(20) = (     0         -1          0      )
                  (     1         -1          0      )
                  (     0         -1          1      )

 cart.    s(20) = (  0.0000000 -1.0000000  0.0000000 )
                  (  0.0000000  0.0000000 -1.0000000 )
                  (  1.0000000  0.0000000  0.0000000 )


      isym = 21     120 deg rotation - cart. axis [1,1,1]        

 cryst.   s(21) = (     0          0         -1      )
                  (     0          1         -1      )
                  (     1          0         -1      )

 cart.    s(21) = (  0.0000000  0.0000000  1.0000000 )
                  (  1.0000000  0.0000000  0.0000000 )
                  (  0.0000000  1.0000000  0.0000000 )


      isym = 22     120 deg rotation - cart. axis [-1,1,-1]      

 cryst.   s(22) = (    -1          1          0      )
                  (    -1          0          0      )
                  (    -1          0          1      )

 cart.    s(22) = (  0.0000000  0.0000000  1.0000000 )
                  ( -1.0000000  0.0000000  0.0000000 )
                  (  0.0000000 -1.0000000  0.0000000 )


      isym = 23     120 deg rotation - cart. axis [1,-1,-1]      

 cryst.   s(23) = (     0          0          1      )
                  (     1          0          0      )
                  (     0          1          0      )

 cart.    s(23) = (  0.0000000  0.0000000 -1.0000000 )
                  ( -1.0000000  0.0000000  0.0000000 )
                  (  0.0000000  1.0000000  0.0000000 )


      isym = 24     120 deg rotation - cart. axis [-1,-1,1]      

 cryst.   s(24) = (     1         -1          0      )
                  (     0         -1          1      )
                  (     0         -1          0      )

 cart.    s(24) = (  0.0000000  0.0000000 -1.0000000 )
                  (  1.0000000  0.0000000  0.0000000 )
                  (  0.0000000 -1.0000000  0.0000000 )


      isym = 25     inversion                                    

 cryst.   s(25) = (    -1          0          0      )
                  (     0         -1          0      )
                  (     0          0         -1      )

 cart.    s(25) = ( -1.0000000  0.0000000  0.0000000 )
                  (  0.0000000 -1.0000000  0.0000000 )
                  (  0.0000000  0.0000000 -1.0000000 )


      isym = 26     inv. 180 deg rotation - cart. axis [0,0,1]   

 cryst.   s(26) = (     0         -1          1      )
                  (    -1          0          1      )
                  (     0          0          1      )

 cart.    s(26) = (  1.0000000  0.0000000  0.0000000 )
                  (  0.0000000  1.0000000  0.0000000 )
                  (  0.0000000  0.0000000 -1.0000000 )


      isym = 27     inv. 180 deg rotation - cart. axis [0,1,0]   

 cryst.   s(27) = (     1          0          0      )
                  (     1          0         -1      )
                  (     1         -1          0      )

 cart.    s(27) = (  1.0000000  0.0000000  0.0000000 )
                  (  0.0000000 -1.0000000  0.0000000 )
                  (  0.0000000  0.0000000  1.0000000 )


      isym = 28     inv. 180 deg rotation - cart. axis [1,0,0]   

 cryst.   s(28) = (     0          1         -1      )
                  (     0          1          0      )
                  (    -1          1          0      )

 cart.    s(28) = ( -1.0000000  0.0000000  0.0000000 )
                  (  0.0000000  1.0000000  0.0000000 )
                  (  0.0000000  0.0000000  1.0000000 )


      isym = 29     inv. 180 deg rotation - cart. axis [1,1,0]   

 cryst.   s(29) = (     0          1          0      )
                  (     1          0          0      )
                  (     0          0          1      )

 cart.    s(29) = (  0.0000000 -1.0000000  0.0000000 )
                  ( -1.0000000  0.0000000  0.0000000 )
                  (  0.0000000  0.0000000  1.0000000 )


      isym = 30     inv. 180 deg rotation - cart. axis [1,-1,0]  

 cryst.   s(30) = (     1          0         -1      )
                  (     0          1         -1      )
                  (     0          0         -1      )

 cart.    s(30) = (  0.0000000  1.0000000  0.0000000 )
                  (  1.0000000  0.0000000  0.0000000 )
                  (  0.0000000  0.0000000  1.0000000 )


      isym = 31     inv.  90 deg rotation - cart. axis [0,0,-1]  

 cryst.   s(31) = (     0         -1          0      )
                  (     0         -1          1      )
                  (     1         -1          0      )

 cart.    s(31) = (  0.0000000 -1.0000000  0.0000000 )
                  (  1.0000000  0.0000000  0.0000000 )
                  (  0.0000000  0.0000000 -1.0000000 )


      isym = 32     inv.  90 deg rotation - cart. axis [0,0,1]   

 cryst.   s(32) = (    -1          0          1      )
                  (    -1          0          0      )
                  (    -1          1          0      )

 cart.    s(32) = (  0.0000000  1.0000000  0.0000000 )
                  ( -1.0000000  0.0000000  0.0000000 )
                  (  0.0000000  0.0000000 -1.0000000 )


      isym = 33     inv. 180 deg rotation - cart. axis [1,0,1]   

 cryst.   s(33) = (     1          0          0      )
                  (     0          0          1      )
                  (     0          1          0      )

 cart.    s(33) = (  0.0000000  0.0000000 -1.0000000 )
                  (  0.0000000  1.0000000  0.0000000 )
                  ( -1.0000000  0.0000000  0.0000000 )


      isym = 34     inv. 180 deg rotation - cart. axis [-1,0,1]  

 cryst.   s(34) = (    -1          0          0      )
                  (    -1          1          0      )
                  (    -1          0          1      )

 cart.    s(34) = (  0.0000000  0.0000000  1.0000000 )
                  (  0.0000000  1.0000000  0.0000000 )
                  (  1.0000000  0.0000000  0.0000000 )


      isym = 35     inv.  90 deg rotation - cart. axis [0,1,0]   

 cryst.   s(35) = (     0         -1          1      )
                  (     1         -1          0      )
                  (     0         -1          0      )

 cart.    s(35) = (  0.0000000  0.0000000 -1.0000000 )
                  (  0.0000000 -1.0000000  0.0000000 )
                  (  1.0000000  0.0000000  0.0000000 )


      isym = 36     inv.  90 deg rotation - cart. axis [0,-1,0]  

 cryst.   s(36) = (     0          1         -1      )
                  (     0          0         -1      )
                  (     1          0         -1      )

 cart.    s(36) = (  0.0000000  0.0000000  1.0000000 )
                  (  0.0000000 -1.0000000  0.0000000 )
                  ( -1.0000000  0.0000000  0.0000000 )


      isym = 37     inv. 180 deg rotation - cart. axis [0,1,1]   

 cryst.   s(37) = (     1         -1          0      )
                  (     0         -1          0      )
                  (     0         -1          1      )

 cart.    s(37) = (  1.0000000  0.0000000  0.0000000 )
                  (  0.0000000  0.0000000 -1.0000000 )
                  (  0.0000000 -1.0000000  0.0000000 )


      isym = 38     inv. 180 deg rotation - cart. axis [0,1,-1]  

 cryst.   s(38) = (     0          0          1      )
                  (     0          1          0      )
                  (     1          0          0      )

 cart.    s(38) = (  1.0000000  0.0000000  0.0000000 )
                  (  0.0000000  0.0000000  1.0000000 )
                  (  0.0000000  1.0000000  0.0000000 )


      isym = 39     inv.  90 deg rotation - cart. axis [-1,0,0]  

 cryst.   s(39) = (     0          0         -1      )
                  (     1          0         -1      )
                  (     0          1         -1      )

 cart.    s(39) = ( -1.0000000  0.0000000  0.0000000 )
                  (  0.0000000  0.0000000 -1.0000000 )
                  (  0.0000000  1.0000000  0.0000000 )


      isym = 40     inv.  90 deg rotation - cart. axis [1,0,0]   

 cryst.   s(40) = (    -1          1          0      )
                  (    -1          0          1      )
                  (    -1          0          0      )

 cart.    s(40) = ( -1.0000000  0.0000000  0.0000000 )
                  (  0.0000000  0.0000000  1.0000000 )
                  (  0.0000000 -1.0000000  0.0000000 )


      isym = 41     inv. 120 deg rotation - cart. axis [-1,-1,-1]

 cryst.   s(41) = (     1          0         -1      )
                  (     1         -1          0      )
                  (     1          0          0      )

 cart.    s(41) = (  0.0000000 -1.0000000  0.0000000 )
                  (  0.0000000  0.0000000 -1.0000000 )
                  ( -1.0000000  0.0000000  0.0000000 )


      isym = 42     inv. 120 deg rotation - cart. axis [-1,1,1]  

 cryst.   s(42) = (     0         -1          0      )
                  (     0          0         -1      )
                  (    -1          0          0      )

 cart.    s(42) = (  0.0000000  1.0000000  0.0000000 )
                  (  0.0000000  0.0000000 -1.0000000 )
                  (  1.0000000  0.0000000  0.0000000 )


      isym = 43     inv. 120 deg rotation - cart. axis [1,1,-1]  

 cryst.   s(43) = (    -1          0          1      )
                  (     0          0          1      )
                  (     0         -1          1      )

 cart.    s(43) = (  0.0000000 -1.0000000  0.0000000 )
                  (  0.0000000  0.0000000  1.0000000 )
                  (  1.0000000  0.0000000  0.0000000 )


      isym = 44     inv. 120 deg rotation - cart. axis [1,-1,1]  

 cryst.   s(44) = (     0          1          0      )
                  (    -1          1          0      )
                  (     0          1         -1      )

 cart.    s(44) = (  0.0000000  1.0000000  0.0000000 )
                  (  0.0000000  0.0000000  1.0000000 )
                  ( -1.0000000  0.0000000  0.0000000 )


      isym = 45     inv. 120 deg rotation - cart. axis [1,1,1]   

 cryst.   s(45) = (     0          0          1      )
                  (     0         -1          1      )
                  (    -1          0          1      )

 cart.    s(45) = (  0.0000000  0.0000000 -1.0000000 )
                  ( -1.0000000  0.0000000  0.0000000 )
                  (  0.0000000 -1.0000000  0.0000000 )


      isym = 46     inv. 120 deg rotation - cart. axis [-1,1,-1] 

 cryst.   s(46) = (     1         -1          0      )
                  (     1          0          0      )
                  (     1          0         -1      )

 cart.    s(46) = (  0.0000000  0.0000000 -1.0000000 )
                  (  1.0000000  0.0000000  0.0000000 )
                  (  0.0000000  1.0000000  0.0000000 )


      isym = 47     inv. 120 deg rotation - cart. axis [1,-1,-1] 

 cryst.   s(47) = (     0          0         -1      )
                  (    -1          0          0      )
                  (     0         -1          0      )

 cart.    s(47) = (  0.0000000  0.0000000  1.0000000 )
                  (  1.0000000  0.0000000  0.0000000 )
                  (  0.0000000 -1.0000000  0.0000000 )


      isym = 48     inv. 120 deg rotation - cart. axis [-1,-1,1] 

 cryst.   s(48) = (    -1          1          0      )
                  (     0          1         -1      )
                  (     0          1          0      )

 cart.    s(48) = (  0.0000000  0.0000000  1.0000000 )
                  ( -1.0000000  0.0000000  0.0000000 )
                  (  0.0000000  1.0000000  0.0000000 )


     point group O_h (m-3m) 
     there are 10 classes
     the character table:

       E     8C3   3C2   6C4   6C2'  i     8S6   3s_h  6S4   6s_d 
A_1g   1.00  1.00  1.00  1.00  1.00  1.00  1.00  1.00  1.00  1.00
A_2g   1.00  1.00  1.00 -1.00 -1.00  1.00  1.00  1.00 -1.00 -1.00
E_g    2.00 -1.00  2.00  0.00  0.00  2.00 -1.00  2.00  0.00  0.00
T_1g   3.00  0.00 -1.00  1.00 -1.00  3.00  0.00 -1.00  1.00 -1.00
T_2g   3.00  0.00 -1.00 -1.00  1.00  3.00  0.00 -1.00 -1.00  1.00
A_1u   1.00  1.00  1.00  1.00  1.00 -1.00 -1.00 -1.00 -1.00 -1.00
A_2u   1.00  1.00  1.00 -1.00 -1.00 -1.00 -1.00 -1.00  1.00  1.00
E_u    2.00 -1.00  2.00  0.00  0.00 -2.00  1.00 -2.00  0.00  0.00
T_1u   3.00  0.00 -1.00  1.00 -1.00 -3.00  0.00  1.00 -1.00  1.00
T_2u   3.00  0.00 -1.00 -1.00  1.00 -3.00  0.00  1.00  1.00 -1.00

     the symmetry operations in each class and the name of the first element:

     E        1
          identity                                               
     8C3     17   19   20   18   24   21   22   23
          120 deg rotation - cart. axis [-1,-1,-1]               
     3C2      2    4    3
          180 deg rotation - cart. axis [0,0,1]                  
     6C4      7    8   15   16   12   11
           90 deg rotation - cart. axis [0,0,-1]                 
     6C2'     5    6   14   13   10    9
          180 deg rotation - cart. axis [1,1,0]                  
     i       25
          inversion                                              
     8S6     41   43   44   42   48   45   46   47
          inv. 120 deg rotation - cart. axis [-1,-1,-1]          
     3s_h    26   28   27
          inv. 180 deg rotation - cart. axis [0,0,1]             
     6S4     31   32   39   40   36   35
          inv.  90 deg rotation - cart. axis [0,0,-1]            
     6s_d    29   30   38   37   34   33
          inv. 180 deg rotation - cart. axis [1,1,0]             

   Cartesian axes

     site n.     atom                  positions (alat units)
         1           Pb  tau(   1) = (   0.0000000   0.0000000   0.0000000  )

   Crystallographic axes

     site n.     atom                  positions (cryst. coord.)
         1           Pb  tau(   1) = (  0.0000000  0.0000000  0.0000000  )

     number of k points=    72  Methfessel-Paxton smearing, width (Ry)=  0.0250
                       cart. coord. in units 2pi/alat
        k(    1) = (   0.0000000   0.0000000   0.0000000), wk =   0.0011574
        k(    2) = (  -0.0833333   0.0833333  -0.0833333), wk =   0.0092593
        k(    3) = (  -0.1666667   0.1666667  -0.1666667), wk =   0.0092593
        k(    4) = (  -0.2500000   0.2500000  -0.2500000), wk =   0.0092593
        k(    5) = (  -0.3333333   0.3333333  -0.3333333), wk =   0.0092593
        k(    6) = (  -0.4166667   0.4166667  -0.4166667), wk =   0.0092593
        k(    7) = (   0.5000000  -0.5000000   0.5000000), wk =   0.0046296
        k(    8) = (   0.0000000   0.1666667   0.0000000), wk =   0.0069444
        k(    9) = (  -0.0833333   0.2500000  -0.0833333), wk =   0.0277778
        k(   10) = (  -0.1666667   0.3333333  -0.1666667), wk =   0.0277778
        k(   11) = (  -0.2500000   0.4166667  -0.2500000), wk =   0.0277778
        k(   12) = (  -0.3333333   0.5000000  -0.3333333), wk =   0.0277778
        k(   13) = (   0.5833333  -0.4166667   0.5833333), wk =   0.0277778
        k(   14) = (   0.5000000  -0.3333333   0.5000000), wk =   0.0277778
        k(   15) = (   0.4166667  -0.2500000   0.4166667), wk =   0.0277778
        k(   16) = (   0.3333333  -0.1666667   0.3333333), wk =   0.0277778
        k(   17) = (   0.2500000  -0.0833333   0.2500000), wk =   0.0277778
        k(   18) = (   0.1666667  -0.0000000   0.1666667), wk =   0.0138889
        k(   19) = (   0.0000000   0.3333333   0.0000000), wk =   0.0069444
        k(   20) = (  -0.0833333   0.4166667  -0.0833333), wk =   0.0277778
        k(   21) = (  -0.1666667   0.5000000  -0.1666667), wk =   0.0277778
        k(   22) = (  -0.2500000   0.5833333  -0.2500000), wk =   0.0277778
        k(   23) = (   0.6666667  -0.3333333   0.6666667), wk =   0.0277778
        k(   24) = (   0.5833333  -0.2500000   0.5833333), wk =   0.0277778
        k(   25) = (   0.5000000  -0.1666667   0.5000000), wk =   0.0277778
        k(   26) = (   0.4166667  -0.0833333   0.4166667), wk =   0.0277778
        k(   27) = (   0.3333333   0.0000000   0.3333333), wk =   0.0138889
        k(   28) = (   0.0000000   0.5000000   0.0000000), wk =   0.0069444
        k(   29) = (  -0.0833333   0.5833333  -0.0833333), wk =   0.0277778
        k(   30) = (  -0.1666667   0.6666667  -0.1666667), wk =   0.0277778
        k(   31) = (   0.7500000  -0.2500000   0.7500000), wk =   0.0277778
        k(   32) = (   0.6666667  -0.1666667   0.6666667), wk =   0.0277778
        k(   33) = (   0.5833333  -0.0833333   0.5833333), wk =   0.0277778
        k(   34) = (   0.5000000   0.0000000   0.5000000), wk =   0.0138889
        k(   35) = (   0.0000000   0.6666667   0.0000000), wk =   0.0069444
        k(   36) = (  -0.0833333   0.7500000  -0.0833333), wk =   0.0277778
        k(   37) = (   0.8333333  -0.1666667   0.8333333), wk =   0.0277778
        k(   38) = (   0.7500000  -0.0833333   0.7500000), wk =   0.0277778
        k(   39) = (   0.6666667  -0.0000000   0.6666667), wk =   0.0138889
        k(   40) = (   0.0000000   0.8333333   0.0000000), wk =   0.0069444
        k(   41) = (   0.9166667  -0.0833333   0.9166667), wk =   0.0277778
        k(   42) = (   0.8333333   0.0000000   0.8333333), wk =   0.0138889
        k(   43) = (   0.0000000  -1.0000000   0.0000000), wk =   0.0034722
        k(   44) = (  -0.1666667   0.3333333   0.0000000), wk =   0.0277778
        k(   45) = (  -0.2500000   0.4166667  -0.0833333), wk =   0.0555556
        k(   46) = (  -0.3333333   0.5000000  -0.1666667), wk =   0.0555556
        k(   47) = (   0.5833333  -0.4166667   0.7500000), wk =   0.0555556
        k(   48) = (   0.5000000  -0.3333333   0.6666667), wk =   0.0277778
        k(   49) = (  -0.1666667   0.5000000   0.0000000), wk =   0.0277778
        k(   50) = (  -0.2500000   0.5833333  -0.0833333), wk =   0.0555556
        k(   51) = (   0.6666667  -0.3333333   0.8333333), wk =   0.0555556
        k(   52) = (   0.5833333  -0.2500000   0.7500000), wk =   0.0555556
        k(   53) = (   0.5000000  -0.1666667   0.6666667), wk =   0.0555556
        k(   54) = (   0.4166667  -0.0833333   0.5833333), wk =   0.0555556
        k(   55) = (   0.3333333   0.0000000   0.5000000), wk =   0.0277778
        k(   56) = (  -0.1666667   0.6666667  -0.0000000), wk =   0.0277778
        k(   57) = (   0.7500000  -0.2500000   0.9166667), wk =   0.0555556
        k(   58) = (   0.6666667  -0.1666667   0.8333333), wk =   0.0555556
        k(   59) = (   0.5833333  -0.0833333   0.7500000), wk =   0.0555556
        k(   60) = (   0.5000000   0.0000000   0.6666667), wk =   0.0277778
        k(   61) = (   0.8333333  -0.1666667   1.0000000), wk =   0.0277778
        k(   62) = (   0.7500000  -0.0833333   0.9166667), wk =   0.0555556
        k(   63) = (   0.6666667   0.0000000   0.8333333), wk =   0.0277778
        k(   64) = (  -0.1666667  -1.0000000  -0.0000000), wk =   0.0138889
        k(   65) = (   0.6666667  -0.3333333   1.0000000), wk =   0.0277778
        k(   66) = (   0.5833333  -0.2500000   0.9166667), wk =   0.0555556
        k(   67) = (   0.5000000  -0.1666667   0.8333333), wk =   0.0277778
        k(   68) = (   0.6666667  -0.1666667   1.0000000), wk =   0.0277778
        k(   69) = (   0.5833333  -0.0833333   0.9166667), wk =   0.0555556
        k(   70) = (   0.5000000   0.0000000   0.8333333), wk =   0.0277778
        k(   71) = (  -0.3333333  -1.0000000   0.0000000), wk =   0.0138889
        k(   72) = (  -0.5000000  -1.0000000   0.0000000), wk =   0.0069444

                       cryst. coord.
        k(    1) = (   0.0000000   0.0000000   0.0000000), wk =   0.0011574
        k(    2) = (   0.0000000   0.0000000   0.0833333), wk =   0.0092593
        k(    3) = (   0.0000000   0.0000000   0.1666667), wk =   0.0092593
        k(    4) = (   0.0000000   0.0000000   0.2500000), wk =   0.0092593
        k(    5) = (   0.0000000   0.0000000   0.3333333), wk =   0.0092593
        k(    6) = (   0.0000000   0.0000000   0.4166667), wk =   0.0092593
        k(    7) = (   0.0000000   0.0000000  -0.5000000), wk =   0.0046296
        k(    8) = (   0.0000000   0.0833333   0.0833333), wk =   0.0069444
        k(    9) = (   0.0000000   0.0833333   0.1666667), wk =   0.0277778
        k(   10) = (   0.0000000   0.0833333   0.2500000), wk =   0.0277778
        k(   11) = (   0.0000000   0.0833333   0.3333333), wk =   0.0277778
        k(   12) = (   0.0000000   0.0833333   0.4166667), wk =   0.0277778
        k(   13) = (   0.0000000   0.0833333  -0.5000000), wk =   0.0277778
        k(   14) = (   0.0000000   0.0833333  -0.4166667), wk =   0.0277778
        k(   15) = (   0.0000000   0.0833333  -0.3333333), wk =   0.0277778
        k(   16) = (   0.0000000   0.0833333  -0.2500000), wk =   0.0277778
        k(   17) = (   0.0000000   0.0833333  -0.1666667), wk =   0.0277778
        k(   18) = (   0.0000000   0.0833333  -0.0833333), wk =   0.0138889
        k(   19) = (   0.0000000   0.1666667   0.1666667), wk =   0.0069444
        k(   20) = (   0.0000000   0.1666667   0.2500000), wk =   0.0277778
        k(   21) = (   0.0000000   0.1666667   0.3333333), wk =   0.0277778
        k(   22) = (   0.0000000   0.1666667   0.4166667), wk =   0.0277778
        k(   23) = (   0.0000000   0.1666667  -0.5000000), wk =   0.0277778
        k(   24) = (   0.0000000   0.1666667  -0.4166667), wk =   0.0277778
        k(   25) = (   0.0000000   0.1666667  -0.3333333), wk =   0.0277778
        k(   26) = (   0.0000000   0.1666667  -0.2500000), wk =   0.0277778
        k(   27) = (   0.0000000   0.1666667  -0.1666667), wk =   0.0138889
        k(   28) = (   0.0000000   0.2500000   0.2500000), wk =   0.0069444
        k(   29) = (   0.0000000   0.2500000   0.3333333), wk =   0.0277778
        k(   30) = (   0.0000000   0.2500000   0.4166667), wk =   0.0277778
        k(   31) = (   0.0000000   0.2500000  -0.5000000), wk =   0.0277778
        k(   32) = (   0.0000000   0.2500000  -0.4166667), wk =   0.0277778
        k(   33) = (   0.0000000   0.2500000  -0.3333333), wk =   0.0277778
        k(   34) = (   0.0000000   0.2500000  -0.2500000), wk =   0.0138889
        k(   35) = (   0.0000000   0.3333333   0.3333333), wk =   0.0069444
        k(   36) = (   0.0000000   0.3333333   0.4166667), wk =   0.0277778
        k(   37) = (   0.0000000   0.3333333  -0.5000000), wk =   0.0277778
        k(   38) = (   0.0000000   0.3333333  -0.4166667), wk =   0.0277778
        k(   39) = (   0.0000000   0.3333333  -0.3333333), wk =   0.0138889
        k(   40) = (   0.0000000   0.4166667   0.4166667), wk =   0.0069444
        k(   41) = (   0.0000000   0.4166667  -0.5000000), wk =   0.0277778
        k(   42) = (   0.0000000   0.4166667  -0.4166667), wk =   0.0138889
        k(   43) = (   0.0000000  -0.5000000  -0.5000000), wk =   0.0034722
        k(   44) = (   0.0833333   0.1666667   0.2500000), wk =   0.0277778
        k(   45) = (   0.0833333   0.1666667   0.3333333), wk =   0.0555556
        k(   46) = (   0.0833333   0.1666667   0.4166667), wk =   0.0555556
        k(   47) = (   0.0833333   0.1666667  -0.5000000), wk =   0.0555556
        k(   48) = (   0.0833333   0.1666667  -0.4166667), wk =   0.0277778
        k(   49) = (   0.0833333   0.2500000   0.3333333), wk =   0.0277778
        k(   50) = (   0.0833333   0.2500000   0.4166667), wk =   0.0555556
        k(   51) = (   0.0833333   0.2500000  -0.5000000), wk =   0.0555556
        k(   52) = (   0.0833333   0.2500000  -0.4166667), wk =   0.0555556
        k(   53) = (   0.0833333   0.2500000  -0.3333333), wk =   0.0555556
        k(   54) = (   0.0833333   0.2500000  -0.2500000), wk =   0.0555556
        k(   55) = (   0.0833333   0.2500000  -0.1666667), wk =   0.0277778
        k(   56) = (   0.0833333   0.3333333   0.4166667), wk =   0.0277778
        k(   57) = (   0.0833333   0.3333333  -0.5000000), wk =   0.0555556
        k(   58) = (   0.0833333   0.3333333  -0.4166667), wk =   0.0555556
        k(   59) = (   0.0833333   0.3333333  -0.3333333), wk =   0.0555556
        k(   60) = (   0.0833333   0.3333333  -0.2500000), wk =   0.0277778
        k(   61) = (   0.0833333   0.4166667  -0.5000000), wk =   0.0277778
        k(   62) = (   0.0833333   0.4166667  -0.4166667), wk =   0.0555556
        k(   63) = (   0.0833333   0.4166667  -0.3333333), wk =   0.0277778
        k(   64) = (   0.0833333  -0.5000000  -0.4166667), wk =   0.0138889
        k(   65) = (   0.1666667   0.3333333  -0.5000000), wk =   0.0277778
        k(   66) = (   0.1666667   0.3333333  -0.4166667), wk =   0.0555556
        k(   67) = (   0.1666667   0.3333333  -0.3333333), wk =   0.0277778
        k(   68) = (   0.1666667   0.4166667  -0.4166667), wk =   0.0277778
        k(   69) = (   0.1666667   0.4166667  -0.3333333), wk =   0.0555556
        k(   70) = (   0.1666667   0.4166667  -0.2500000), wk =   0.0277778
        k(   71) = (   0.1666667  -0.5000000  -0.3333333), wk =   0.0138889
        k(   72) = (   0.2500000  -0.5000000  -0.2500000), wk =   0.0069444

     Dense  grid:    12387 G-vectors     FFT dimensions: (  36,  36,  36)

     Dynamical RAM for                 wfc:       0.26 MB

     Dynamical RAM for     wfc (w. buffer):       9.71 MB

     Dynamical RAM for           str. fact:       0.19 MB

     Dynamical RAM for           local pot:       0.00 MB

     Dynamical RAM for          nlocal pot:       0.19 MB

     Dynamical RAM for                qrad:       0.18 MB

     Dynamical RAM for          rho,v,vnew:       1.63 MB

     Dynamical RAM for               rhoin:       0.54 MB

     Dynamical RAM for            rho*nmix:       3.02 MB

     Dynamical RAM for           G-vectors:       0.80 MB

     Dynamical RAM for          h,s,v(r/c):       0.02 MB

     Dynamical RAM for          <psi|beta>:       0.00 MB

     Dynamical RAM for                 psi:       0.52 MB

     Dynamical RAM for                hpsi:       0.52 MB

     Dynamical RAM for      wfcinit/wfcrot:       0.53 MB

     Estimated static dynamical RAM per process >      18.43 MB

     Estimated max dynamical RAM per process >      19.50 MB

     Estimated total dynamical RAM >      39.00 MB

     Initial potential from superposition of free atoms

     starting charge   13.99923, renormalised to   14.00000
     Starting wfcs are    9 randomized atomic wfcs +    2 random wfcs

     total cpu time spent up to now is        0.7 secs

     Self-consistent Calculation

     iteration #  1     ecut=    60.00 Ry     beta= 0.70
     Davidson diagonalization with overlap
     ethr =  1.00E-02,  avg # of iterations =  4.1

     Threshold (ethr) on eigenvalues was too large:
     Diagonalizing with lowered threshold

     Davidson diagonalization with overlap
     ethr =  5.01E-05,  avg # of iterations =  4.4

     total cpu time spent up to now is        3.3 secs

     total energy              =    -119.55894005 Ry
     estimated scf accuracy    <       0.00701122 Ry

     iteration #  2     ecut=    60.00 Ry     beta= 0.70
     Davidson diagonalization with overlap
     ethr =  5.01E-05,  avg # of iterations =  2.0

     total cpu time spent up to now is        4.5 secs

     total energy              =    -119.56022613 Ry
     estimated scf accuracy    <       0.00036359 Ry

     iteration #  3     ecut=    60.00 Ry     beta= 0.70
     Davidson diagonalization with overlap
     ethr =  2.60E-06,  avg # of iterations =  2.9

     total cpu time spent up to now is        5.7 secs

     total energy              =    -119.56027230 Ry
     estimated scf accuracy    <       0.00001467 Ry

     iteration #  4     ecut=    60.00 Ry     beta= 0.70
     Davidson diagonalization with overlap
     ethr =  1.05E-07,  avg # of iterations =  1.1

     total cpu time spent up to now is        6.6 secs

     total energy              =    -119.56027282 Ry
     estimated scf accuracy    <       0.00000009 Ry

     iteration #  5     ecut=    60.00 Ry     beta= 0.70
     Davidson diagonalization with overlap
     ethr =  6.50E-10,  avg # of iterations =  2.3

     total cpu time spent up to now is        7.8 secs

     total energy              =    -119.56027284 Ry
     estimated scf accuracy    <          8.0E-09 Ry

     iteration #  6     ecut=    60.00 Ry     beta= 0.70
     Davidson diagonalization with overlap
     ethr =  5.72E-11,  avg # of iterations =  2.0

     total cpu time spent up to now is        8.9 secs

     total energy              =    -119.56027285 Ry
     estimated scf accuracy    <          1.1E-10 Ry

     iteration #  7     ecut=    60.00 Ry     beta= 0.70
     Davidson diagonalization with overlap
     ethr =  7.72E-13,  avg # of iterations =  1.6

     total cpu time spent up to now is        9.9 secs

     total energy              =    -119.56027285 Ry
     estimated scf accuracy    <          2.6E-12 Ry

     iteration #  8     ecut=    60.00 Ry     beta= 0.70
     Davidson diagonalization with overlap
     ethr =  1.00E-13,  avg # of iterations =  1.9

     total cpu time spent up to now is       10.9 secs

     End of self-consistent calculation

          k = 0.0000 0.0000 0.0000 (  1471 PWs)   bands (ev):

    -5.4835  -5.4835  -5.4835  -5.3264  -5.3264  -0.5406  18.6682  18.6682
    18.6682  21.9665  23.0168

     occupation numbers 
     1.0000   1.0000   1.0000   1.0000   1.0000   1.0000  -0.0000  -0.0000
    -0.0000  -0.0000  -0.0000

          k =-0.0833 0.0833-0.0833 (  1534 PWs)   bands (ev):

    -5.4840  -5.4726  -5.4726  -5.3271  -5.3271  -0.4040  17.2312  18.5107
    18.5107  21.6134  23.6990

     occupation numbers 
     1.0000   1.0000   1.0000   1.0000   1.0000   1.0000  -0.0000  -0.0000
    -0.0000  -0.0000  -0.0000

          k =-0.1667 0.1667-0.1667 (  1537 PWs)   bands (ev):

    -5.4871  -5.4507  -5.4507  -5.3205  -5.3205   0.0068  14.6776  18.1227
    18.1227  21.2159  24.5736

     occupation numbers 
     1.0000   1.0000   1.0000   1.0000   1.0000   1.0000  -0.0000  -0.0000
    -0.0000  -0.0000  -0.0000

          k =-0.2500 0.2500-0.2500 (  1546 PWs)   bands (ev):

    -5.4952  -5.4437  -5.4437  -5.2879  -5.2879   0.6888  12.1055  17.6596
    17.6596  20.9775  23.5480

     occupation numbers 
     1.0000   1.0000   1.0000   1.0000   1.0000   1.0000  -0.0042  -0.0000
    -0.0000  -0.0000  -0.0000

          k =-0.3333 0.3333-0.3333 (  1540 PWs)   bands (ev):

    -5.5070  -5.4540  -5.4540  -5.2369  -5.2369   1.6122   9.7712  17.2451
    17.2451  20.9130  22.5753

     occupation numbers 
     1.0000   1.0000   1.0000   1.0000   1.0000   1.0000   1.0000  -0.0000
    -0.0000  -0.0000  -0.0000

          k =-0.4167 0.4167-0.4167 (  1556 PWs)   bands (ev):

    -5.5177  -5.4662  -5.4662  -5.1944  -5.1944   2.6468   7.8733  16.9625
    16.9625  21.0248  21.8403

     occupation numbers 
     1.0000   1.0000   1.0000   1.0000   1.0000   1.0000   1.0000  -0.0000
    -0.0000  -0.0000  -0.0000

          k = 0.5000-0.5000 0.5000 (  1538 PWs)   bands (ev):

    -5.5220  -5.4711  -5.4711  -5.1781  -5.1781   3.2388   6.9913  16.8624
    16.8624  21.2803  21.3777

     occupation numbers 
     1.0000   1.0000   1.0000   1.0000   1.0000   1.0000   1.0000  -0.0000
    -0.0000  -0.0000  -0.0000

          k = 0.0000 0.1667 0.0000 (  1523 PWs)   bands (ev):

    -5.4958  -5.4620  -5.4620  -5.3393  -5.3173  -0.3586  17.6516  17.9803
    17.9803  21.3403  23.8863

     occupation numbers 
     1.0000   1.0000   1.0000   1.0000   1.0000   1.0000  -0.0000  -0.0000
    -0.0000  -0.0000  -0.0000

          k =-0.0833 0.2500-0.0833 (  1541 PWs)   bands (ev):

    -5.5031  -5.4394  -5.4370  -5.3494  -5.3052  -0.0393  15.5295  17.3819
    17.8833  21.2383  23.2275

     occupation numbers 
     1.0000   1.0000   1.0000   1.0000   1.0000   1.0000  -0.0000  -0.0000
    -0.0000  -0.0000  -0.0000

          k =-0.1667 0.3333-0.1667 (  1552 PWs)   bands (ev):

    -5.5049  -5.4316  -5.4226  -5.3349  -5.2748   0.5528  12.9935  16.8645
    17.4575  21.2212  22.8315

     occupation numbers 
     1.0000   1.0000   1.0000   1.0000   1.0000   1.0000  -0.0000  -0.0000
    -0.0000  -0.0000  -0.0000

          k =-0.2500 0.4167-0.2500 (  1567 PWs)   bands (ev):

    -5.5076  -5.4454  -5.4286  -5.2895  -5.2281   1.3989  10.6012  16.5121
    16.8731  20.7997  22.8391

     occupation numbers 
     1.0000   1.0000   1.0000   1.0000   1.0000   1.0000   1.0035  -0.0000
    -0.0000  -0.0000  -0.0000

          k =-0.3333 0.5000-0.3333 (  1562 PWs)   bands (ev):

    -5.5112  -5.4620  -5.4420  -5.2387  -5.1893   2.4163   8.5539  16.3037
    16.3744  20.5108  22.6486

     occupation numbers 
     1.0000   1.0000   1.0000   1.0000   1.0000   1.0000   1.0000  -0.0000
    -0.0000  -0.0000  -0.0000

          k = 0.5833-0.4167 0.5833 (  1551 PWs)   bands (ev):

    -5.5117  -5.4717  -5.4516  -5.2028  -5.1771   3.2519   7.2453  15.8628
    16.4773  20.4877  22.3672

     occupation numbers 
     1.0000   1.0000   1.0000   1.0000   1.0000   1.0000   1.0000  -0.0000
    -0.0000  -0.0000  -0.0000

          k = 0.5000-0.3333 0.5000 (  1549 PWs)   bands (ev):

    -5.5072  -5.4705  -5.4523  -5.1977  -5.1933   3.0414   7.5527  15.6225
    16.8183  20.7255  22.1509

     occupation numbers 
     1.0000   1.0000   1.0000   1.0000   1.0000   1.0000   1.0000  -0.0000
    -0.0000  -0.0000  -0.0000

          k = 0.4167-0.2500 0.4167 (  1561 PWs)   bands (ev):

    -5.5000  -5.4590  -5.4435  -5.2456  -5.2121   2.0684   9.1890  15.6155
    17.3550  21.1746  22.1121

     occupation numbers 
     1.0000   1.0000   1.0000   1.0000   1.0000   1.0000   1.0000  -0.0000
    -0.0000  -0.0000  -0.0000

          k = 0.3333-0.1667 0.3333 (  1565 PWs)   bands (ev):

    -5.4936  -5.4443  -5.4312  -5.3036  -5.2501   1.0910  11.3711  15.8474
    17.9866  21.6061  22.4783

     occupation numbers 
     1.0000   1.0000   1.0000   1.0000   1.0000   1.0000   0.4762  -0.0000
    -0.0000  -0.0000  -0.0000

          k = 0.2500-0.0833 0.2500 (  1554 PWs)   bands (ev):

    -5.4904  -5.4384  -5.4339  -5.3406  -5.2895   0.3257  13.8052  16.3217
    18.5305  21.7777  23.3871

     occupation numbers 
     1.0000   1.0000   1.0000   1.0000   1.0000   1.0000  -0.0000  -0.0000
    -0.0000  -0.0000  -0.0000

          k = 0.1667-0.0000 0.1667 (  1544 PWs)   bands (ev):

    -5.4885  -5.4588  -5.4513  -5.3392  -5.3142  -0.1760  16.0734  17.1931
    18.7449  21.6927  23.8409

     occupation numbers 
     1.0000   1.0000   1.0000   1.0000   1.0000   1.0000  -0.0000  -0.0000
    -0.0000  -0.0000  -0.0000

          k = 0.0000 0.3333 0.0000 (  1551 PWs)   bands (ev):

    -5.5295  -5.4023  -5.4023  -5.3778  -5.2924   0.1882  15.7655  16.6250
    16.6250  20.3790  21.7388

     occupation numbers 
     1.0000   1.0000   1.0000   1.0000   1.0000   1.0000  -0.0000  -0.0000
    -0.0000  -0.0000  -0.0000

          k =-0.0833 0.4167-0.0833 (  1553 PWs)   bands (ev):

    -5.5419  -5.4090  -5.3741  -5.3579  -5.2669   0.6882  13.8134  16.0088
    16.2403  20.3152  20.9954

     occupation numbers 
     1.0000   1.0000   1.0000   1.0000   1.0000   1.0000  -0.0000  -0.0000
    -0.0000  -0.0000  -0.0000

          k =-0.1667 0.5000-0.1667 (  1560 PWs)   bands (ev):

    -5.5400  -5.4306  -5.3728  -5.3208  -5.2221   1.4467  11.5358  15.5386
    15.6115  19.8029  22.1303

     occupation numbers 
     1.0000   1.0000   1.0000   1.0000   1.0000   1.0000   0.1233  -0.0000
    -0.0000  -0.0000  -0.0000

          k =-0.2500 0.5833-0.2500 (  1569 PWs)   bands (ev):

    -5.5325  -5.4409  -5.3851  -5.2882  -5.1843   2.4049   9.4677  14.7362
    15.4772  19.4973  23.7553

     occupation numbers 
     1.0000   1.0000   1.0000   1.0000   1.0000   1.0000   1.0000  -0.0000
    -0.0000  -0.0000  -0.0000

          k = 0.6667-0.3333 0.6667 (  1567 PWs)   bands (ev):

    -5.5229  -5.4433  -5.3980  -5.2595  -5.1739   3.3351   7.9325  14.0501
    15.6277  19.4850  24.1980

     occupation numbers 
     1.0000   1.0000   1.0000   1.0000   1.0000   1.0000   1.0000  -0.0000
    -0.0000  -0.0000  -0.0000

          k = 0.5833-0.2500 0.5833 (  1561 PWs)   bands (ev):

    -5.5078  -5.4462  -5.4044  -5.2382  -5.1977   3.5202   7.6753  13.5862
    16.0597  19.7421  23.8362

     occupation numbers 
     1.0000   1.0000   1.0000   1.0000   1.0000   1.0000   1.0000  -0.0000
    -0.0000  -0.0000  -0.0000

          k = 0.5000-0.1667 0.5000 (  1569 PWs)   bands (ev):

    -5.4865  -5.4536  -5.4012  -5.2502  -5.2303   2.7267   8.9231  13.4045
    16.7346  20.2602  23.5514

     occupation numbers 
     1.0000   1.0000   1.0000   1.0000   1.0000   1.0000   1.0000  -0.0000
    -0.0000  -0.0000  -0.0000

          k = 0.4167-0.0833 0.4167 (  1559 PWs)   bands (ev):

    -5.4719  -5.4574  -5.3894  -5.3166  -5.2378   1.7425  10.8237  13.5736
    17.5517  21.0406  23.3282

     occupation numbers 
     1.0000   1.0000   1.0000   1.0000   1.0000   1.0000   1.0239  -0.0000
    -0.0000  -0.0000  -0.0000

          k = 0.3333 0.0000 0.3333 (  1558 PWs)   bands (ev):

    -5.4835  -5.4416  -5.3925  -5.3584  -5.2593   0.9124  12.6889  14.3903
    18.2823  22.0778  22.8065

     occupation numbers 
     1.0000   1.0000   1.0000   1.0000   1.0000   1.0000  -0.0000  -0.0000
    -0.0000  -0.0000  -0.0000

          k = 0.0000 0.5000 0.0000 (  1587 PWs)   bands (ev):

    -5.5753  -5.4364  -5.3183  -5.3183  -5.2583   1.0948  13.6093  15.2936
    15.2936  19.5439  19.5823

     occupation numbers 
     1.0000   1.0000   1.0000   1.0000   1.0000   1.0000  -0.0000  -0.0000
    -0.0000  -0.0000  -0.0000

          k =-0.0833 0.5833-0.0833 (  1569 PWs)   bands (ev):

    -5.5869  -5.4632  -5.3000  -5.2810  -5.2212   1.7605  12.0504  14.4942
    14.8124  18.9485  19.9881

     occupation numbers 
     1.0000   1.0000   1.0000   1.0000   1.0000   1.0000  -0.0074  -0.0000
    -0.0000  -0.0000  -0.0000

          k =-0.1667 0.6667-0.1667 (  1568 PWs)   bands (ev):

    -5.5773  -5.4694  -5.3097  -5.2658  -5.1806   2.6374  10.2921  13.3846
    14.6151  18.6997  21.5268

     occupation numbers 
     1.0000   1.0000   1.0000   1.0000   1.0000   1.0000   1.0000  -0.0000
    -0.0000  -0.0000  -0.0000

          k = 0.7500-0.2500 0.7500 (  1564 PWs)   bands (ev):

    -5.5599  -5.4445  -5.3239  -5.2735  -5.1691   3.5611   8.8181  12.3866
    14.7249  18.7017  23.5881

     occupation numbers 
     1.0000   1.0000   1.0000   1.0000   1.0000   1.0000   1.0000  -0.0001
    -0.0000  -0.0000  -0.0000

          k = 0.6667-0.1667 0.6667 (  1566 PWs)   bands (ev):

    -5.5394  -5.4024  -5.3355  -5.2932  -5.1931   4.0118   8.2394  11.6673
    15.1397  18.9367  25.6898

     occupation numbers 
     1.0000   1.0000   1.0000   1.0000   1.0000   1.0000   1.0000  -0.0112
    -0.0000  -0.0000  -0.0000

          k = 0.5833-0.0833 0.5833 (  1561 PWs)   bands (ev):

    -5.5134  -5.3944  -5.3416  -5.2876  -5.2456   3.5038   9.0237  11.3322
    15.8250  19.4041  25.4921

     occupation numbers 
     1.0000   1.0000   1.0000   1.0000   1.0000   1.0000   1.0000   0.5728
    -0.0000  -0.0000  -0.0000

          k = 0.5000 0.0000 0.5000 (  1564 PWs)   bands (ev):

    -5.4844  -5.4308  -5.3473  -5.3049  -5.2548   2.5950  10.2322  11.7832
    16.6948  20.1083  24.8603

     occupation numbers 
     1.0000   1.0000   1.0000   1.0000   1.0000   1.0000   1.0000  -0.0354
    -0.0000  -0.0000  -0.0000

          k = 0.0000 0.6667 0.0000 (  1580 PWs)   bands (ev):

    -5.6208  -5.5007  -5.2312  -5.2312  -5.2240   2.3298  11.3009  14.2381
    14.2381  18.1257  19.0160

     occupation numbers 
     1.0000   1.0000   1.0000   1.0000   1.0000   1.0000   0.6484  -0.0000
    -0.0000  -0.0000  -0.0000

          k =-0.0833 0.7500-0.0833 (  1577 PWs)   bands (ev):

    -5.6257  -5.5197  -5.2367  -5.2063  -5.1783   3.1096  10.1003  13.2448
    13.9516  18.0206  19.4736

     occupation numbers 
     1.0000   1.0000   1.0000   1.0000   1.0000   1.0000   1.0000  -0.0000
    -0.0000  -0.0000  -0.0000

          k = 0.8333-0.1667 0.8333 (  1567 PWs)   bands (ev):

    -5.6055  -5.5067  -5.2504  -5.2158  -5.1621   3.9547   9.1190  11.7774
    13.9826  18.1175  21.1319

     occupation numbers 
     1.0000   1.0000   1.0000   1.0000   1.0000   1.0000   1.0000  -0.0355
    -0.0000  -0.0000  -0.0000

          k = 0.7500-0.0833 0.7500 (  1563 PWs)   bands (ev):

    -5.5775  -5.4521  -5.2668  -5.2573  -5.1817   4.4641   8.8325  10.4781
    14.3325  18.3456  23.3591

     occupation numbers 
     1.0000   1.0000   1.0000   1.0000   1.0000   1.0000   1.0000   1.0007
    -0.0000  -0.0000  -0.0000

          k = 0.6667-0.0000 0.6667 (  1568 PWs)   bands (ev):

    -5.5465  -5.3719  -5.3199  -5.2919  -5.2209   4.2160   9.4829   9.7281
    14.9713  18.7672  25.8849

     occupation numbers 
     1.0000   1.0000   1.0000   1.0000   1.0000   1.0000   1.0000   1.0000
    -0.0000  -0.0000  -0.0000

          k = 0.0000 0.8333 0.0000 (  1576 PWs)   bands (ev):

    -5.6540  -5.5508  -5.1987  -5.1653  -5.1653   3.7687   9.1252  13.5680
    13.5680  17.3733  18.6811

     occupation numbers 
     1.0000   1.0000   1.0000   1.0000   1.0000   1.0000   1.0000  -0.0000
    -0.0000  -0.0000  -0.0000

          k = 0.9167-0.0833 0.9167 (  1571 PWs)   bands (ev):

    -5.6481  -5.5542  -5.2023  -5.1614  -5.1501   4.4354   8.3795  12.6533
    13.5036  17.5944  19.2262

     occupation numbers 
     1.0000   1.0000   1.0000   1.0000   1.0000   1.0000   1.0000  -0.0000
    -0.0000  -0.0000  -0.0000

          k = 0.8333 0.0000 0.8333 (  1580 PWs)   bands (ev):

    -5.6160  -5.5213  -5.2218  -5.1963  -5.1619   4.7121   8.3988  11.2339
    13.7664  17.9359  20.9980

     occupation numbers 
     1.0000   1.0000   1.0000   1.0000   1.0000   1.0000   1.0000   0.7942
    -0.0000  -0.0000  -0.0000

          k = 0.0000-1.0000 0.0000 (  1588 PWs)   bands (ev):

    -5.6661  -5.5696  -5.1895  -5.1408  -5.1408   4.6974   7.9354  13.3386
    13.3386  17.1402  18.5706

     occupation numbers 
     1.0000   1.0000   1.0000   1.0000   1.0000   1.0000   1.0000  -0.0000
    -0.0000  -0.0000  -0.0000

          k =-0.1667 0.3333 0.0000 (  1547 PWs)   bands (ev):

    -5.5121  -5.4225  -5.4051  -5.3633  -5.2829   0.3708  14.3214  15.8020
    17.8518  21.3549  22.1314

     occupation numbers 
     1.0000   1.0000   1.0000   1.0000   1.0000   1.0000  -0.0000  -0.0000
    -0.0000  -0.0000  -0.0000

          k =-0.2500 0.4167-0.0833 (  1558 PWs)   bands (ev):

    -5.5093  -5.4315  -5.3906  -5.3424  -5.2481   1.0470  12.2366  14.9223
    17.3770  21.1674  22.4263

     occupation numbers 
     1.0000   1.0000   1.0000   1.0000   1.0000   1.0000  -0.0008  -0.0000
    -0.0000  -0.0000  -0.0000

          k =-0.3333 0.5000-0.1667 (  1564 PWs)   bands (ev):

    -5.5030  -5.4514  -5.4004  -5.2925  -5.2125   1.9537  10.0578  14.5436
    16.6635  20.6985  22.9265

     occupation numbers 
     1.0000   1.0000   1.0000   1.0000   1.0000   1.0000   1.0000  -0.0000
    -0.0000  -0.0000  -0.0000

          k = 0.5833-0.4167 0.7500 (  1560 PWs)   bands (ev):

    -5.4972  -5.4703  -5.4087  -5.2489  -5.1898   2.9523   8.2527  14.4102
    16.0661  20.4395  22.7070

     occupation numbers 
     1.0000   1.0000   1.0000   1.0000   1.0000   1.0000   1.0000  -0.0000
    -0.0000  -0.0000  -0.0000

          k = 0.5000-0.3333 0.6667 (  1550 PWs)   bands (ev):

    -5.4923  -5.4808  -5.4116  -5.2301  -5.1837   3.5076   7.4238  14.3950
    15.8257  20.3575  22.5870

     occupation numbers 
     1.0000   1.0000   1.0000   1.0000   1.0000   1.0000   1.0000  -0.0000
    -0.0000  -0.0000  -0.0000

          k =-0.1667 0.5000 0.0000 (  1556 PWs)   bands (ev):

    -5.5526  -5.4320  -5.3513  -5.3208  -5.2392   1.2718  12.6631  14.4986
    15.9865  20.2150  20.6245

     occupation numbers 
     1.0000   1.0000   1.0000   1.0000   1.0000   1.0000  -0.0000  -0.0000
    -0.0000  -0.0000  -0.0000

          k =-0.2500 0.5833-0.0833 (  1566 PWs)   bands (ev):

    -5.5434  -5.4484  -5.3539  -5.2863  -5.2076   2.0930  10.9118  13.6284
    15.3024  19.9676  21.8856

     occupation numbers 
     1.0000   1.0000   1.0000   1.0000   1.0000   1.0000   1.0342  -0.0000
    -0.0000  -0.0000  -0.0000

          k = 0.6667-0.3333 0.8333 (  1566 PWs)   bands (ev):

    -5.5277  -5.4488  -5.3578  -5.2768  -5.1845   3.0519   9.1647  13.1176
    14.7770  19.8814  23.5450

     occupation numbers 
     1.0000   1.0000   1.0000   1.0000   1.0000   1.0000   1.0000  -0.0000
    -0.0000  -0.0000  -0.0000

          k = 0.5833-0.2500 0.7500 (  1559 PWs)   bands (ev):

    -5.5130  -5.4447  -5.3509  -5.2836  -5.1826   3.7910   8.0559  12.6822
    14.7334  20.0064  23.6692

     occupation numbers 
     1.0000   1.0000   1.0000   1.0000   1.0000   1.0000   1.0000  -0.0000
    -0.0000  -0.0000  -0.0000

          k = 0.5000-0.1667 0.6667 (  1558 PWs)   bands (ev):

    -5.4948  -5.4503  -5.3517  -5.2807  -5.2043   3.5967   8.3557  12.3876
    15.1391  20.3303  23.3963

     occupation numbers 
     1.0000   1.0000   1.0000   1.0000   1.0000   1.0000   1.0000  -0.0001
    -0.0000  -0.0000  -0.0000

          k = 0.4167-0.0833 0.5833 (  1563 PWs)   bands (ev):

    -5.4722  -5.4675  -5.3635  -5.2825  -5.2291   2.7129   9.7726  12.4008
    15.8575  20.8111  23.2774

     occupation numbers 
     1.0000   1.0000   1.0000   1.0000   1.0000   1.0000   1.0000  -0.0001
    -0.0000  -0.0000  -0.0000

          k = 0.3333 0.0000 0.5000 (  1566 PWs)   bands (ev):

    -5.4928  -5.4486  -5.3669  -5.3238  -5.2335   1.7887  11.3162  13.0921
    16.7228  21.2824  22.7534

     occupation numbers 
     1.0000   1.0000   1.0000   1.0000   1.0000   1.0000   0.6118  -0.0000
    -0.0000  -0.0000  -0.0000

          k =-0.1667 0.6667-0.0000 (  1566 PWs)   bands (ev):

    -5.5936  -5.4868  -5.2913  -5.2326  -5.2007   2.4870  10.9608  13.4789
    14.1938  19.0475  20.0321

     occupation numbers 
     1.0000   1.0000   1.0000   1.0000   1.0000   1.0000   1.0351  -0.0000
    -0.0000  -0.0000  -0.0000

          k = 0.7500-0.2500 0.9167 (  1569 PWs)   bands (ev):

    -5.5750  -5.4871  -5.3017  -5.2238  -5.1792   3.3671   9.7467  12.3484
    13.7156  19.2546  21.3981

     occupation numbers 
     1.0000   1.0000   1.0000   1.0000   1.0000   1.0000   1.0000  -0.0002
    -0.0000  -0.0000  -0.0000

          k = 0.6667-0.1667 0.8333 (  1568 PWs)   bands (ev):

    -5.5507  -5.4507  -5.3160  -5.2579  -5.1724   4.1369   8.8386  11.3056
    13.7657  19.4375  23.4897

     occupation numbers 
     1.0000   1.0000   1.0000   1.0000   1.0000   1.0000   1.0000   0.6373
    -0.0000  -0.0000  -0.0000

          k = 0.5833-0.0833 0.7500 (  1560 PWs)   bands (ev):

    -5.5268  -5.3970  -5.3366  -5.2956  -5.1951   4.2272   8.8857  10.6160
    14.2071  19.7895  25.1198

     occupation numbers 
     1.0000   1.0000   1.0000   1.0000   1.0000   1.0000   1.0000   1.0041
    -0.0000  -0.0000  -0.0000

          k = 0.5000 0.0000 0.6667 (  1559 PWs)   bands (ev):

    -5.4994  -5.4130  -5.3489  -5.2771  -5.2371   3.5693   9.5896  10.7649
    14.9438  20.3075  24.8421

     occupation numbers 
     1.0000   1.0000   1.0000   1.0000   1.0000   1.0000   1.0000   1.0162
    -0.0000  -0.0000  -0.0000

          k = 0.8333-0.1667 1.0000 (  1572 PWs)   bands (ev):

    -5.6236  -5.5324  -5.2347  -5.1805  -5.1657   3.8719   9.1849  12.8334
    13.0966  18.4249  19.6696

     occupation numbers 
     1.0000   1.0000   1.0000   1.0000   1.0000   1.0000   1.0000  -0.0000
    -0.0000  -0.0000  -0.0000

          k = 0.7500-0.0833 0.9167 (  1572 PWs)   bands (ev):

    -5.5939  -5.5137  -5.2487  -5.2148  -5.1529   4.5215   8.7126  11.4289
    13.0696  18.9211  21.1393

     occupation numbers 
     1.0000   1.0000   1.0000   1.0000   1.0000   1.0000   1.0000   0.3360
    -0.0000  -0.0000  -0.0000

          k = 0.6667 0.0000 0.8333 (  1572 PWs)   bands (ev):

    -5.5599  -5.4534  -5.2881  -5.2598  -5.1686   4.6419   9.0698  10.1363
    13.4881  19.2946  23.3926

     occupation numbers 
     1.0000   1.0000   1.0000   1.0000   1.0000   1.0000   1.0000   1.0000
    -0.0000  -0.0000  -0.0000

          k =-0.1667-1.0000-0.0000 (  1572 PWs)   bands (ev):

    -5.6345  -5.5499  -5.2063  -5.1801  -5.1408   4.7220   8.1681  12.6125
    12.7514  18.2285  19.5486

     occupation numbers 
     1.0000   1.0000   1.0000   1.0000   1.0000   1.0000   1.0000  -0.0000
    -0.0000  -0.0000  -0.0000

          k = 0.6667-0.3333 1.0000 (  1564 PWs)   bands (ev):

    -5.5179  -5.4646  -5.3563  -5.2358  -5.2201   2.9311  10.2139  12.0858
    14.4277  20.9006  22.2034

     occupation numbers 
     1.0000   1.0000   1.0000   1.0000   1.0000   1.0000   1.0000  -0.0052
    -0.0000  -0.0000  -0.0000

          k = 0.5833-0.2500 0.9167 (  1561 PWs)   bands (ev):

    -5.4905  -5.4615  -5.3560  -5.2621  -5.1925   3.7990   9.2000  11.4347
    13.6928  21.1270  23.3418

     occupation numbers 
     1.0000   1.0000   1.0000   1.0000   1.0000   1.0000   1.0000   0.3226
    -0.0000  -0.0000  -0.0000

          k = 0.5000-0.1667 0.8333 (  1566 PWs)   bands (ev):

    -5.4890  -5.4456  -5.3426  -5.2965  -5.1775   4.2386   8.6323  11.3190
    13.4080  21.1421  23.3958

     occupation numbers 
     1.0000   1.0000   1.0000   1.0000   1.0000   1.0000   1.0000   0.6049
    -0.0000  -0.0000  -0.0000

          k = 0.6667-0.1667 1.0000 (  1569 PWs)   bands (ev):

    -5.5383  -5.4908  -5.3168  -5.2285  -5.1668   4.1375   9.3188  11.4514
    12.6243  20.6079  21.8221

     occupation numbers 
     1.0000   1.0000   1.0000   1.0000   1.0000   1.0000   1.0000   0.2850
    -0.0000  -0.0000  -0.0000

          k = 0.5833-0.0833 0.9167 (  1575 PWs)   bands (ev):

    -5.5048  -5.4539  -5.3517  -5.2677  -5.1536   4.6125   9.2575  10.4867
    12.3686  21.2001  23.5795

     occupation numbers 
     1.0000   1.0000   1.0000   1.0000   1.0000   1.0000   1.0000   1.0008
    -0.0001  -0.0000  -0.0000

          k = 0.5000 0.0000 0.8333 (  1568 PWs)   bands (ev):

    -5.4889  -5.4164  -5.3889  -5.2773  -5.1681   4.4408   9.5500  10.1217
    12.8156  21.5013  24.4648

     occupation numbers 
     1.0000   1.0000   1.0000   1.0000   1.0000   1.0000   1.0000   1.0000
    -0.0000  -0.0000  -0.0000

          k =-0.3333-1.0000 0.0000 (  1578 PWs)   bands (ev):

    -5.5460  -5.5027  -5.2843  -5.2476  -5.1407   4.7735   8.8441  11.2346
    11.9519  20.4986  21.6914

     occupation numbers 
     1.0000   1.0000   1.0000   1.0000   1.0000   1.0000   1.0000   0.7928
    -0.0170  -0.0000  -0.0000

          k =-0.5000-1.0000 0.0000 (  1564 PWs)   bands (ev):

    -5.4718  -5.4190  -5.4190  -5.2755  -5.1407   4.8005   9.9018   9.9018
    11.6384  22.4356  24.3272

     occupation numbers 
     1.0000   1.0000   1.0000   1.0000   1.0000   1.0000   1.0000   1.0000
     0.0065  -0.0000  -0.0000

     the Fermi energy is    11.3616 ev

!    total energy              =    -119.56027285 Ry
     estimated scf accuracy    <          4.7E-13 Ry
     smearing contrib. (-TS)   =      -0.00075632 Ry
     internal energy E=F+TS    =    -119.55951652 Ry

     The total energy is F=E-TS. E is the sum of the following terms:
     one-electron contribution =     -33.07626670 Ry
     hartree contribution      =      25.00134609 Ry
     xc contribution           =     -14.54468579 Ry
     ewald contribution        =     -96.93991011 Ry

     convergence has been achieved in   8 iterations

     Forces acting on atoms (cartesian axes, Ry/au):

     atom    1 type  1   force =     0.00000000    0.00000000    0.00000000
     The non-local contrib.  to forces
     atom    1 type  1   force =     0.00000000    0.00000000    0.00000000
     The ionic contribution  to forces
     atom    1 type  1   force =     0.00000000    0.00000000    0.00000000
     The local contribution  to forces
     atom    1 type  1   force =    -0.00000000    0.00000000    0.00000000
     The core correction contribution to forces
     atom    1 type  1   force =     0.00000000    0.00000000    0.00000000
     The Hubbard contrib.    to forces
     atom    1 type  1   force =     0.00000000    0.00000000    0.00000000
     The SCF correction term to forces
     atom    1 type  1   force =    -0.00000000   -0.00000000    0.00000000

     Total force =     0.000000     Total SCF correction =     0.000000


     Computing stress (Cartesian axis) and pressure

          total   stress  (Ry/bohr**3)                   (kbar)     P=       -7.31
  -0.00004971   0.00000000   0.00000000           -7.31        0.00        0.00
   0.00000000  -0.00004971  -0.00000000            0.00       -7.31       -0.00
   0.00000000  -0.00000000  -0.00004971            0.00       -0.00       -7.31

     kinetic stress (kbar)  34527.83      0.00     -0.00
                                0.00  34527.83      0.00
                               -0.00      0.00  34527.83

     local   stress (kbar)  32786.42      0.00      0.00
                                0.00  32786.42     -0.00
                                0.00     -0.00  32786.42

     nonloc. stress (kbar) -46276.10     -0.00     -0.00
                               -0.00 -46276.10      0.00
                               -0.00      0.00 -46276.10

     hartree stress (kbar)   6155.89     -0.00     -0.00
                               -0.00   6155.89      0.00
                               -0.00      0.00   6155.89

     exc-cor stress (kbar)  -3332.59      0.00      0.00
                                0.00  -3332.59      0.00
                                0.00      0.00  -3332.59

     corecor stress (kbar)      0.00      0.00      0.00
                                0.00      0.00      0.00
                                0.00      0.00      0.00

     ewald   stress (kbar) -23868.76     -0.00     -0.00
                               -0.00 -23868.76     -0.00
                               -0.00     -0.00 -23868.76

     hubbard stress (kbar)      0.00      0.00      0.00
                                0.00      0.00      0.00
                                0.00      0.00      0.00

     DFT-D   stress (kbar)      0.00      0.00      0.00
                                0.00      0.00      0.00
                                0.00      0.00      0.00

     XDM     stress (kbar)      0.00      0.00      0.00
                                0.00      0.00      0.00
                                0.00      0.00      0.00

     dft-nl  stress (kbar)      0.00      0.00      0.00
                                0.00      0.00      0.00
                                0.00      0.00      0.00

     TS-vdW  stress (kbar)      0.00      0.00      0.00
                                0.00      0.00      0.00
                                0.00      0.00      0.00



     Writing output data file ./temp/pb.save/
 
     init_run     :      0.60s CPU      0.63s WALL (       1 calls)
     electrons    :     10.14s CPU     10.21s WALL (       1 calls)
     forces       :      0.03s CPU      0.03s WALL (       1 calls)
     stress       :      0.21s CPU      0.21s WALL (       1 calls)

     Called by init_run:
     wfcinit      :      0.49s CPU      0.51s WALL (       1 calls)
     wfcinit:atom :      0.02s CPU      0.02s WALL (      36 calls)
     wfcinit:wfcr :      0.46s CPU      0.47s WALL (      36 calls)
     potinit      :      0.01s CPU      0.01s WALL (       1 calls)
     hinit0       :      0.08s CPU      0.08s WALL (       1 calls)

     Called by electrons:
     c_bands      :      8.36s CPU      8.41s WALL (       9 calls)
     sum_band     :      1.74s CPU      1.75s WALL (       9 calls)
     v_of_rho     :      0.03s CPU      0.03s WALL (       9 calls)
     v_h          :      0.01s CPU      0.01s WALL (       9 calls)
     v_xc         :      0.02s CPU      0.02s WALL (       9 calls)
     mix_rho      :      0.02s CPU      0.02s WALL (       9 calls)

     Called by c_bands:
     init_us_2    :      0.20s CPU      0.20s WALL (     756 calls)
     cegterg      :      8.06s CPU      8.11s WALL (     324 calls)

     Called by sum_band:
     sum_band:wei :      0.01s CPU      0.01s WALL (       9 calls)
     sum_band:loo :      1.71s CPU      1.72s WALL (       9 calls)
     sum_band:buf :      0.01s CPU      0.01s WALL (     324 calls)
     sum_band:ini :      0.09s CPU      0.09s WALL (     324 calls)

     Called by *egterg:
     cdiaghg      :      0.15s CPU      0.15s WALL (    1147 calls)
     cegterg:over :      0.13s CPU      0.13s WALL (     859 calls)
     cegterg:upda :      0.08s CPU      0.08s WALL (     859 calls)
     cegterg:last :      0.10s CPU      0.10s WALL (     611 calls)
     h_psi        :      7.89s CPU      7.94s WALL (    1219 calls)
     g_psi        :      0.06s CPU      0.06s WALL (     859 calls)

     Called by h_psi:
     h_psi:calbec :      0.06s CPU      0.06s WALL (    1219 calls)
     vloc_psi     :      7.76s CPU      7.80s WALL (    1219 calls)
     add_vuspsi   :      0.05s CPU      0.06s WALL (    1219 calls)

     General routines
     calbec       :      0.06s CPU      0.07s WALL (    1399 calls)
     fft          :      0.01s CPU      0.02s WALL (      32 calls)
     ffts         :      0.00s CPU      0.00s WALL (       9 calls)
     fftw         :      8.23s CPU      8.28s WALL (   21750 calls)
 
     Parallel routines
 
     PWSCF        :     11.06s CPU     11.20s WALL

 
   This run was terminated on:  18:54:42   9Sep2021            

=------------------------------------------------------------------------------=
   JOB DONE.
=------------------------------------------------------------------------------=
