
     Program PWSCF v.7.4 starts on 17Aug2025 at 14: 7:41 

     This program is part of the open-source Quantum ESPRESSO suite
     for quantum simulation of materials; please cite
         "P. Giannozzi et al., J. Phys.:Condens. Matter 21 395502 (2009);
         "P. Giannozzi et al., J. Phys.:Condens. Matter 29 465901 (2017);
         "P. Giannozzi et al., J. Chem. Phys. 152 154105 (2020);
          URL http://www.quantum-espresso.org", 
     in publications or presentations arising from this work. More details at
     http://www.quantum-espresso.org/quote

     Parallel version (MPI), running on    16 processors

     MPI processes distributed on     1 nodes
     1012888 MiB available memory on the printing compute node when the environment starts

     Reading input from bands.in

     Current dimensions of program PWSCF are:
     Max number of different atomic species (ntypx) = 10
     Max number of k-points (npk) =  40000
     Max angular momentum in pseudopotentials (lmaxx) =  4

     Atomic positions and unit cell read from directory:
     temp/bn.save/


     K-points division:     npool     =       4
     R & G space division:  proc/nbgrp/npool/nimage =       4
     Subspace diagonalization in iterative solution of the eigenvalue problem:
     a serial algorithm will be used


     Parallelization info
     --------------------
     sticks:   dense  smooth     PW     G-vecs:    dense   smooth      PW
     Min         109     109     37                 1557     1557     284
     Max         110     110     38                 1558     1558     285
     Sum         439     439    151                 6231     6231    1139

     Using Slab Decomposition



     bravais-lattice index     =            2
     lattice parameter (alat)  =       6.8300  a.u.
     unit-cell volume          =      79.6530 (a.u.)^3
     number of atoms/cell      =            2
     number of atomic types    =            2
     number of electrons       =         8.00
     number of Kohn-Sham states=           12
     kinetic-energy cutoff     =      70.0000  Ry
     charge density cutoff     =     280.0000  Ry
     Exchange-correlation= SLA  PW   NOGX NOGC
                           (   1   4   0   0   0   0   0)

     celldm(1)=   6.830000  celldm(2)=   0.000000  celldm(3)=   0.000000
     celldm(4)=   0.000000  celldm(5)=   0.000000  celldm(6)=   0.000000

     crystal axes: (cart. coord. in units of alat)
               a(1) = (  -0.500000   0.000000   0.500000 )  
               a(2) = (   0.000000   0.500000   0.500000 )  
               a(3) = (  -0.500000   0.500000   0.000000 )  

     reciprocal axes: (cart. coord. in units 2 pi/alat)
               b(1) = ( -1.000000 -1.000000  1.000000 )  
               b(2) = (  1.000000  1.000000  1.000000 )  
               b(3) = ( -1.000000  1.000000 -1.000000 )  


     PseudoPot. # 1 for B  read from file:
     ./B.dojo.sr.ONCVv0.4.lda.standard.upf
     MD5 check sum: 69d4ef3dbc0509a37f66397c3ecc5321
     Pseudo is Norm-conserving + core correction, Zval =  3.0
     Generated using ONCVPSP code by D. R. Hamann
     Using radial grid of 1498 points,  4 beta functions with: 
                l(1) =   0
                l(2) =   0
                l(3) =   1
                l(4) =   1

     PseudoPot. # 2 for N  read from file:
     ./N.dojo.sr.ONCVv0.4.lda.standard.upf
     MD5 check sum: f7cfb052850314c53fa2901765c0b356
     Pseudo is Norm-conserving + core correction, Zval =  5.0
     Generated using ONCVPSP code by D. R. Hamann
     Using radial grid of 1058 points,  4 beta functions with: 
                l(1) =   0
                l(2) =   0
                l(3) =   1
                l(4) =   1

     atomic species   valence    mass     pseudopotential
     B                 3.00    10.81100     B ( 1.00)
     N                 5.00    14.00670     N ( 1.00)

     24 Sym. Ops. (no inversion) found (18 have fractional translation)


                                    s                        frac. trans.

      isym =  1     identity                                     

 cryst.   s( 1) = (     1          0          0      )
                  (     0          1          0      )
                  (     0          0          1      )

 cart.    s( 1) = (  1.0000000  0.0000000  0.0000000 )
                  (  0.0000000  1.0000000  0.0000000 )
                  (  0.0000000  0.0000000  1.0000000 )


      isym =  2     180 deg rotation - cart. axis [0,0,1]        

 cryst.   s( 2) = (     0          1         -1      )    f =(  0.0000000 )
                  (     1          0         -1      )       (  0.0000000 )
                  (     0          0         -1      )       (  0.5000000 )

 cart.    s( 2) = ( -1.0000000  0.0000000  0.0000000 )    f =( -0.2500000 )
                  (  0.0000000 -1.0000000  0.0000000 )       (  0.2500000 )
                  (  0.0000000  0.0000000  1.0000000 )       (  0.0000000 )


      isym =  3     180 deg rotation - cart. axis [0,1,0]        

 cryst.   s( 3) = (    -1          0          0      )    f =(  0.5000000 )
                  (    -1          0          1      )       (  0.0000000 )
                  (    -1          1          0      )       (  0.0000000 )

 cart.    s( 3) = ( -1.0000000  0.0000000  0.0000000 )    f =( -0.2500000 )
                  (  0.0000000  1.0000000  0.0000000 )       (  0.0000000 )
                  (  0.0000000  0.0000000 -1.0000000 )       (  0.2500000 )


      isym =  4     180 deg rotation - cart. axis [1,0,0]        

 cryst.   s( 4) = (     0         -1          1      )    f =(  0.0000000 )
                  (     0         -1          0      )       (  0.5000000 )
                  (     1         -1          0      )       (  0.0000000 )

 cart.    s( 4) = (  1.0000000  0.0000000  0.0000000 )    f =(  0.0000000 )
                  (  0.0000000 -1.0000000  0.0000000 )       (  0.2500000 )
                  (  0.0000000  0.0000000 -1.0000000 )       (  0.2500000 )


      isym =  5     120 deg rotation - cart. axis [-1,-1,-1]     

 cryst.   s( 5) = (    -1          0          1      )    f =(  0.5000000 )
                  (    -1          1          0      )       (  0.0000000 )
                  (    -1          0          0      )       (  0.0000000 )

 cart.    s( 5) = (  0.0000000  1.0000000  0.0000000 )    f =( -0.2500000 )
                  (  0.0000000  0.0000000  1.0000000 )       (  0.0000000 )
                  (  1.0000000  0.0000000  0.0000000 )       (  0.2500000 )


      isym =  6     120 deg rotation - cart. axis [-1,1,1]       

 cryst.   s( 6) = (     0          1          0      )
                  (     0          0          1      )
                  (     1          0          0      )

 cart.    s( 6) = (  0.0000000 -1.0000000  0.0000000 )
                  (  0.0000000  0.0000000  1.0000000 )
                  ( -1.0000000  0.0000000  0.0000000 )


      isym =  7     120 deg rotation - cart. axis [1,1,-1]       

 cryst.   s( 7) = (     1          0         -1      )    f =(  0.0000000 )
                  (     0          0         -1      )       (  0.0000000 )
                  (     0          1         -1      )       (  0.5000000 )

 cart.    s( 7) = (  0.0000000  1.0000000  0.0000000 )    f =( -0.2500000 )
                  (  0.0000000  0.0000000 -1.0000000 )       (  0.2500000 )
                  ( -1.0000000  0.0000000  0.0000000 )       (  0.0000000 )


      isym =  8     120 deg rotation - cart. axis [1,-1,1]       

 cryst.   s( 8) = (     0         -1          0      )    f =(  0.0000000 )
                  (     1         -1          0      )       (  0.5000000 )
                  (     0         -1          1      )       (  0.0000000 )

 cart.    s( 8) = (  0.0000000 -1.0000000  0.0000000 )    f =(  0.0000000 )
                  (  0.0000000  0.0000000 -1.0000000 )       (  0.2500000 )
                  (  1.0000000  0.0000000  0.0000000 )       (  0.2500000 )


      isym =  9     120 deg rotation - cart. axis [1,1,1]        

 cryst.   s( 9) = (     0          0         -1      )    f =(  0.0000000 )
                  (     0          1         -1      )       (  0.0000000 )
                  (     1          0         -1      )       (  0.5000000 )

 cart.    s( 9) = (  0.0000000  0.0000000  1.0000000 )    f =( -0.2500000 )
                  (  1.0000000  0.0000000  0.0000000 )       (  0.2500000 )
                  (  0.0000000  1.0000000  0.0000000 )       (  0.0000000 )


      isym = 10     120 deg rotation - cart. axis [-1,1,-1]      

 cryst.   s(10) = (    -1          1          0      )    f =(  0.5000000 )
                  (    -1          0          0      )       (  0.0000000 )
                  (    -1          0          1      )       (  0.0000000 )

 cart.    s(10) = (  0.0000000  0.0000000  1.0000000 )    f =( -0.2500000 )
                  ( -1.0000000  0.0000000  0.0000000 )       (  0.0000000 )
                  (  0.0000000 -1.0000000  0.0000000 )       (  0.2500000 )


      isym = 11     120 deg rotation - cart. axis [1,-1,-1]      

 cryst.   s(11) = (     0          0          1      )
                  (     1          0          0      )
                  (     0          1          0      )

 cart.    s(11) = (  0.0000000  0.0000000 -1.0000000 )
                  ( -1.0000000  0.0000000  0.0000000 )
                  (  0.0000000  1.0000000  0.0000000 )


      isym = 12     120 deg rotation - cart. axis [-1,-1,1]      

 cryst.   s(12) = (     1         -1          0      )    f =(  0.0000000 )
                  (     0         -1          1      )       (  0.5000000 )
                  (     0         -1          0      )       (  0.0000000 )

 cart.    s(12) = (  0.0000000  0.0000000 -1.0000000 )    f =(  0.0000000 )
                  (  1.0000000  0.0000000  0.0000000 )       (  0.2500000 )
                  (  0.0000000 -1.0000000  0.0000000 )       (  0.2500000 )


      isym = 13     inv. 180 deg rotation - cart. axis [1,1,0]   

 cryst.   s(13) = (     0          1          0      )
                  (     1          0          0      )
                  (     0          0          1      )

 cart.    s(13) = (  0.0000000 -1.0000000  0.0000000 )
                  ( -1.0000000  0.0000000  0.0000000 )
                  (  0.0000000  0.0000000  1.0000000 )


      isym = 14     inv. 180 deg rotation - cart. axis [1,-1,0]  

 cryst.   s(14) = (     1          0         -1      )    f =(  0.0000000 )
                  (     0          1         -1      )       (  0.0000000 )
                  (     0          0         -1      )       (  0.5000000 )

 cart.    s(14) = (  0.0000000  1.0000000  0.0000000 )    f =( -0.2500000 )
                  (  1.0000000  0.0000000  0.0000000 )       (  0.2500000 )
                  (  0.0000000  0.0000000  1.0000000 )       (  0.0000000 )


      isym = 15     inv.  90 deg rotation - cart. axis [0,0,-1]  

 cryst.   s(15) = (     0         -1          0      )    f =(  0.0000000 )
                  (     0         -1          1      )       (  0.5000000 )
                  (     1         -1          0      )       (  0.0000000 )

 cart.    s(15) = (  0.0000000 -1.0000000  0.0000000 )    f =(  0.0000000 )
                  (  1.0000000  0.0000000  0.0000000 )       (  0.2500000 )
                  (  0.0000000  0.0000000 -1.0000000 )       (  0.2500000 )


      isym = 16     inv.  90 deg rotation - cart. axis [0,0,1]   

 cryst.   s(16) = (    -1          0          1      )    f =(  0.5000000 )
                  (    -1          0          0      )       (  0.0000000 )
                  (    -1          1          0      )       (  0.0000000 )

 cart.    s(16) = (  0.0000000  1.0000000  0.0000000 )    f =( -0.2500000 )
                  ( -1.0000000  0.0000000  0.0000000 )       (  0.0000000 )
                  (  0.0000000  0.0000000 -1.0000000 )       (  0.2500000 )


      isym = 17     inv. 180 deg rotation - cart. axis [1,0,1]   

 cryst.   s(17) = (     1          0          0      )
                  (     0          0          1      )
                  (     0          1          0      )

 cart.    s(17) = (  0.0000000  0.0000000 -1.0000000 )
                  (  0.0000000  1.0000000  0.0000000 )
                  ( -1.0000000  0.0000000  0.0000000 )


      isym = 18     inv. 180 deg rotation - cart. axis [-1,0,1]  

 cryst.   s(18) = (    -1          0          0      )    f =(  0.5000000 )
                  (    -1          1          0      )       (  0.0000000 )
                  (    -1          0          1      )       (  0.0000000 )

 cart.    s(18) = (  0.0000000  0.0000000  1.0000000 )    f =( -0.2500000 )
                  (  0.0000000  1.0000000  0.0000000 )       (  0.0000000 )
                  (  1.0000000  0.0000000  0.0000000 )       (  0.2500000 )


      isym = 19     inv.  90 deg rotation - cart. axis [0,1,0]   

 cryst.   s(19) = (     0         -1          1      )    f =(  0.0000000 )
                  (     1         -1          0      )       (  0.5000000 )
                  (     0         -1          0      )       (  0.0000000 )

 cart.    s(19) = (  0.0000000  0.0000000 -1.0000000 )    f =(  0.0000000 )
                  (  0.0000000 -1.0000000  0.0000000 )       (  0.2500000 )
                  (  1.0000000  0.0000000  0.0000000 )       (  0.2500000 )


      isym = 20     inv.  90 deg rotation - cart. axis [0,-1,0]  

 cryst.   s(20) = (     0          1         -1      )    f =(  0.0000000 )
                  (     0          0         -1      )       (  0.0000000 )
                  (     1          0         -1      )       (  0.5000000 )

 cart.    s(20) = (  0.0000000  0.0000000  1.0000000 )    f =( -0.2500000 )
                  (  0.0000000 -1.0000000  0.0000000 )       (  0.2500000 )
                  ( -1.0000000  0.0000000  0.0000000 )       (  0.0000000 )


      isym = 21     inv. 180 deg rotation - cart. axis [0,1,1]   

 cryst.   s(21) = (     1         -1          0      )    f =(  0.0000000 )
                  (     0         -1          0      )       (  0.5000000 )
                  (     0         -1          1      )       (  0.0000000 )

 cart.    s(21) = (  1.0000000  0.0000000  0.0000000 )    f =(  0.0000000 )
                  (  0.0000000  0.0000000 -1.0000000 )       (  0.2500000 )
                  (  0.0000000 -1.0000000  0.0000000 )       (  0.2500000 )


      isym = 22     inv. 180 deg rotation - cart. axis [0,1,-1]  

 cryst.   s(22) = (     0          0          1      )
                  (     0          1          0      )
                  (     1          0          0      )

 cart.    s(22) = (  1.0000000  0.0000000  0.0000000 )
                  (  0.0000000  0.0000000  1.0000000 )
                  (  0.0000000  1.0000000  0.0000000 )


      isym = 23     inv.  90 deg rotation - cart. axis [-1,0,0]  

 cryst.   s(23) = (     0          0         -1      )    f =(  0.0000000 )
                  (     1          0         -1      )       (  0.0000000 )
                  (     0          1         -1      )       (  0.5000000 )

 cart.    s(23) = ( -1.0000000  0.0000000  0.0000000 )    f =( -0.2500000 )
                  (  0.0000000  0.0000000 -1.0000000 )       (  0.2500000 )
                  (  0.0000000  1.0000000  0.0000000 )       (  0.0000000 )


      isym = 24     inv.  90 deg rotation - cart. axis [1,0,0]   

 cryst.   s(24) = (    -1          1          0      )    f =(  0.5000000 )
                  (    -1          0          1      )       (  0.0000000 )
                  (    -1          0          0      )       (  0.0000000 )

 cart.    s(24) = ( -1.0000000  0.0000000  0.0000000 )    f =( -0.2500000 )
                  (  0.0000000  0.0000000  1.0000000 )       (  0.0000000 )
                  (  0.0000000 -1.0000000  0.0000000 )       (  0.2500000 )


     point group T_d (-43m) 
     there are  5 classes
     the character table:

       E     8C3   3C2   6S4   6s_d 
A_1    1.00  1.00  1.00  1.00  1.00
A_2    1.00  1.00  1.00 -1.00 -1.00
E      2.00 -1.00  2.00  0.00  0.00
T_1    3.00  0.00 -1.00  1.00 -1.00
T_2    3.00  0.00 -1.00 -1.00  1.00

     the symmetry operations in each class and the name of the first element:

     E        1
          identity                                               
     8C3      5    7    8    6   12    9   10   11
          120 deg rotation - cart. axis [-1,-1,-1]               
     3C2      2    3    4
          180 deg rotation - cart. axis [0,0,1]                  
     6S4     15   16   20   19   23   24
          inv.  90 deg rotation - cart. axis [0,0,-1]            
     6s_d    13   14   17   18   21   22
          inv. 180 deg rotation - cart. axis [1,1,0]             

   Cartesian axes

     site n.     atom                  positions (alat units)
         1        B      tau(   1) = (  -0.1250000   0.1250000   0.1250000  )
         2        N      tau(   2) = (   0.1250000  -0.1250000  -0.1250000  )

   Crystallographic axes

     site n.     atom                  positions (cryst. coord.)
         1        B      tau(   1) = (  0.1250000  0.1250000  0.1250000  )
         2        N      tau(   2) = ( -0.1250000 -0.1250000 -0.1250000  )

     number of k points=   199
                       cart. coord. in units 2pi/alat
        k(    1) = (   0.0000000   0.0000000   0.0000000), wk =   0.0100503
        k(    2) = (   0.0000000   0.0000000   0.0147059), wk =   0.0100503
        k(    3) = (   0.0000000   0.0000000   0.0294118), wk =   0.0100503
        k(    4) = (   0.0000000   0.0000000   0.0441176), wk =   0.0100503
        k(    5) = (   0.0000000   0.0000000   0.0588235), wk =   0.0100503
        k(    6) = (   0.0000000   0.0000000   0.0735294), wk =   0.0100503
        k(    7) = (   0.0000000   0.0000000   0.0882353), wk =   0.0100503
        k(    8) = (   0.0000000   0.0000000   0.1029412), wk =   0.0100503
        k(    9) = (   0.0000000   0.0000000   0.1176471), wk =   0.0100503
        k(   10) = (   0.0000000   0.0000000   0.1323529), wk =   0.0100503
        k(   11) = (   0.0000000   0.0000000   0.1470588), wk =   0.0100503
        k(   12) = (   0.0000000   0.0000000   0.1617647), wk =   0.0100503
        k(   13) = (   0.0000000   0.0000000   0.1764706), wk =   0.0100503
        k(   14) = (   0.0000000   0.0000000   0.1911765), wk =   0.0100503
        k(   15) = (   0.0000000   0.0000000   0.2058824), wk =   0.0100503
        k(   16) = (   0.0000000   0.0000000   0.2205882), wk =   0.0100503
        k(   17) = (   0.0000000   0.0000000   0.2352941), wk =   0.0100503
        k(   18) = (   0.0000000   0.0000000   0.2500000), wk =   0.0100503
        k(   19) = (   0.0000000   0.0000000   0.2647059), wk =   0.0100503
        k(   20) = (   0.0000000   0.0000000   0.2794118), wk =   0.0100503
        k(   21) = (   0.0000000   0.0000000   0.2941176), wk =   0.0100503
        k(   22) = (   0.0000000   0.0000000   0.3088235), wk =   0.0100503
        k(   23) = (   0.0000000   0.0000000   0.3235294), wk =   0.0100503
        k(   24) = (   0.0000000   0.0000000   0.3382353), wk =   0.0100503
        k(   25) = (   0.0000000   0.0000000   0.3529412), wk =   0.0100503
        k(   26) = (   0.0000000   0.0000000   0.3676471), wk =   0.0100503
        k(   27) = (   0.0000000   0.0000000   0.3823529), wk =   0.0100503
        k(   28) = (   0.0000000   0.0000000   0.3970588), wk =   0.0100503
        k(   29) = (   0.0000000   0.0000000   0.4117647), wk =   0.0100503
        k(   30) = (   0.0000000   0.0000000   0.4264706), wk =   0.0100503
        k(   31) = (   0.0000000   0.0000000   0.4411765), wk =   0.0100503
        k(   32) = (   0.0000000   0.0000000   0.4558824), wk =   0.0100503
        k(   33) = (   0.0000000   0.0000000   0.4705882), wk =   0.0100503
        k(   34) = (   0.0000000   0.0000000   0.4852941), wk =   0.0100503
        k(   35) = (   0.0000000   0.0000000   0.5000000), wk =   0.0100503
        k(   36) = (   0.0000000   0.0000000   0.5147059), wk =   0.0100503
        k(   37) = (   0.0000000   0.0000000   0.5294118), wk =   0.0100503
        k(   38) = (   0.0000000   0.0000000   0.5441176), wk =   0.0100503
        k(   39) = (   0.0000000   0.0000000   0.5588235), wk =   0.0100503
        k(   40) = (   0.0000000   0.0000000   0.5735294), wk =   0.0100503
        k(   41) = (   0.0000000   0.0000000   0.5882353), wk =   0.0100503
        k(   42) = (   0.0000000   0.0000000   0.6029412), wk =   0.0100503
        k(   43) = (   0.0000000   0.0000000   0.6176471), wk =   0.0100503
        k(   44) = (   0.0000000   0.0000000   0.6323529), wk =   0.0100503
        k(   45) = (   0.0000000   0.0000000   0.6470588), wk =   0.0100503
        k(   46) = (   0.0000000   0.0000000   0.6617647), wk =   0.0100503
        k(   47) = (   0.0000000   0.0000000   0.6764706), wk =   0.0100503
        k(   48) = (   0.0000000   0.0000000   0.6911765), wk =   0.0100503
        k(   49) = (   0.0000000   0.0000000   0.7058824), wk =   0.0100503
        k(   50) = (   0.0000000   0.0000000   0.7205882), wk =   0.0100503
        k(   51) = (   0.0000000   0.0000000   0.7352941), wk =   0.0100503
        k(   52) = (   0.0000000   0.0000000   0.7500000), wk =   0.0100503
        k(   53) = (   0.0000000   0.0000000   0.7647059), wk =   0.0100503
        k(   54) = (   0.0000000   0.0000000   0.7794118), wk =   0.0100503
        k(   55) = (   0.0000000   0.0000000   0.7941176), wk =   0.0100503
        k(   56) = (   0.0000000   0.0000000   0.8088235), wk =   0.0100503
        k(   57) = (   0.0000000   0.0000000   0.8235294), wk =   0.0100503
        k(   58) = (   0.0000000   0.0000000   0.8382353), wk =   0.0100503
        k(   59) = (   0.0000000   0.0000000   0.8529412), wk =   0.0100503
        k(   60) = (   0.0000000   0.0000000   0.8676471), wk =   0.0100503
        k(   61) = (   0.0000000   0.0000000   0.8823529), wk =   0.0100503
        k(   62) = (   0.0000000   0.0000000   0.8970588), wk =   0.0100503
        k(   63) = (   0.0000000   0.0000000   0.9117647), wk =   0.0100503
        k(   64) = (   0.0000000   0.0000000   0.9264706), wk =   0.0100503
        k(   65) = (   0.0000000   0.0000000   0.9411765), wk =   0.0100503
        k(   66) = (   0.0000000   0.0000000   0.9558824), wk =   0.0100503
        k(   67) = (   0.0000000   0.0000000   0.9705882), wk =   0.0100503
        k(   68) = (   0.0000000   0.0000000   0.9852941), wk =   0.0100503
        k(   69) = (   0.0000000   0.0000000   1.0000000), wk =   0.0100503
        k(   70) = (  -0.0147059   0.0000000   1.0000000), wk =   0.0100503
        k(   71) = (  -0.0294118  -0.0000000   1.0000000), wk =   0.0100503
        k(   72) = (  -0.0441176   0.0000000   1.0000000), wk =   0.0100503
        k(   73) = (  -0.0588235   0.0000000   1.0000000), wk =   0.0100503
        k(   74) = (  -0.0735294  -0.0000000   1.0000000), wk =   0.0100503
        k(   75) = (  -0.0882353   0.0000000   1.0000000), wk =   0.0100503
        k(   76) = (  -0.1029412   0.0000000   1.0000000), wk =   0.0100503
        k(   77) = (  -0.1176471  -0.0000000   1.0000000), wk =   0.0100503
        k(   78) = (  -0.1323529   0.0000000   1.0000000), wk =   0.0100503
        k(   79) = (  -0.1470588  -0.0000000   1.0000000), wk =   0.0100503
        k(   80) = (  -0.1617647  -0.0000000   1.0000000), wk =   0.0100503
        k(   81) = (  -0.1764706   0.0000000   1.0000000), wk =   0.0100503
        k(   82) = (  -0.1911765  -0.0000000   1.0000000), wk =   0.0100503
        k(   83) = (  -0.2058824  -0.0000000   1.0000000), wk =   0.0100503
        k(   84) = (  -0.2205882   0.0000000   1.0000000), wk =   0.0100503
        k(   85) = (  -0.2352941  -0.0000000   1.0000000), wk =   0.0100503
        k(   86) = (  -0.2500000   0.0000000   1.0000000), wk =   0.0100503
        k(   87) = (  -0.2647059   0.0000000   1.0000000), wk =   0.0100503
        k(   88) = (  -0.2794118  -0.0000000   1.0000000), wk =   0.0100503
        k(   89) = (  -0.2941176   0.0000000   1.0000000), wk =   0.0100503
        k(   90) = (  -0.3088235   0.0000000   1.0000000), wk =   0.0100503
        k(   91) = (  -0.3235294  -0.0000000   1.0000000), wk =   0.0100503
        k(   92) = (  -0.3382353   0.0000000   1.0000000), wk =   0.0100503
        k(   93) = (  -0.3529412   0.0000000   1.0000000), wk =   0.0100503
        k(   94) = (  -0.3676471  -0.0000000   1.0000000), wk =   0.0100503
        k(   95) = (  -0.3823529   0.0000000   1.0000000), wk =   0.0100503
        k(   96) = (  -0.3970588  -0.0000000   1.0000000), wk =   0.0100503
        k(   97) = (  -0.4117647   0.0000000   1.0000000), wk =   0.0100503
        k(   98) = (  -0.4264706   0.0000000   1.0000000), wk =   0.0100503
        k(   99) = (  -0.4411765  -0.0000000   1.0000000), wk =   0.0100503
        k(  100) = (  -0.4558824   0.0000000   1.0000000), wk =   0.0100503
        k(  101) = (  -0.4705882   0.0000000   1.0000000), wk =   0.0100503
        k(  102) = (  -0.4852941  -0.0000000   1.0000000), wk =   0.0100503
        k(  103) = (  -0.5000000   0.0000000   1.0000000), wk =   0.0100503
        k(  104) = (  -0.5104167   0.0000000   0.9895833), wk =   0.0100503
        k(  105) = (  -0.5208333   0.0000000   0.9791667), wk =   0.0100503
        k(  106) = (  -0.5312500   0.0000000   0.9687500), wk =   0.0100503
        k(  107) = (  -0.5416667   0.0000000   0.9583333), wk =   0.0100503
        k(  108) = (  -0.5520833   0.0000000   0.9479167), wk =   0.0100503
        k(  109) = (  -0.5625000   0.0000000   0.9375000), wk =   0.0100503
        k(  110) = (  -0.5729167   0.0000000   0.9270833), wk =   0.0100503
        k(  111) = (  -0.5833333   0.0000000   0.9166667), wk =   0.0100503
        k(  112) = (  -0.5937500   0.0000000   0.9062500), wk =   0.0100503
        k(  113) = (  -0.6041667   0.0000000   0.8958333), wk =   0.0100503
        k(  114) = (  -0.6145833   0.0000000   0.8854167), wk =   0.0100503
        k(  115) = (  -0.6250000   0.0000000   0.8750000), wk =   0.0100503
        k(  116) = (  -0.6354167   0.0000000   0.8645833), wk =   0.0100503
        k(  117) = (  -0.6458333   0.0000000   0.8541667), wk =   0.0100503
        k(  118) = (  -0.6562500   0.0000000   0.8437500), wk =   0.0100503
        k(  119) = (  -0.6666667   0.0000000   0.8333333), wk =   0.0100503
        k(  120) = (  -0.6770833   0.0000000   0.8229167), wk =   0.0100503
        k(  121) = (  -0.6875000   0.0000000   0.8125000), wk =   0.0100503
        k(  122) = (  -0.6979167   0.0000000   0.8020833), wk =   0.0100503
        k(  123) = (  -0.7083333   0.0000000   0.7916667), wk =   0.0100503
        k(  124) = (  -0.7187500   0.0000000   0.7812500), wk =   0.0100503
        k(  125) = (  -0.7291667   0.0000000   0.7708333), wk =   0.0100503
        k(  126) = (  -0.7395833   0.0000000   0.7604167), wk =   0.0100503
        k(  127) = (  -0.7500000   0.0000000   0.7500000), wk =   0.0100503
        k(  128) = (  -0.7395833   0.0000000   0.7395833), wk =   0.0100503
        k(  129) = (  -0.7291667  -0.0000000   0.7291667), wk =   0.0100503
        k(  130) = (  -0.7187500   0.0000000   0.7187500), wk =   0.0100503
        k(  131) = (  -0.7083333   0.0000000   0.7083333), wk =   0.0100503
        k(  132) = (  -0.6979167  -0.0000000   0.6979167), wk =   0.0100503
        k(  133) = (  -0.6875000   0.0000000   0.6875000), wk =   0.0100503
        k(  134) = (  -0.6770833   0.0000000   0.6770833), wk =   0.0100503
        k(  135) = (  -0.6666667  -0.0000000   0.6666667), wk =   0.0100503
        k(  136) = (  -0.6562500   0.0000000   0.6562500), wk =   0.0100503
        k(  137) = (  -0.6458333   0.0000000   0.6458333), wk =   0.0100503
        k(  138) = (  -0.6354167  -0.0000000   0.6354167), wk =   0.0100503
        k(  139) = (  -0.6250000   0.0000000   0.6250000), wk =   0.0100503
        k(  140) = (  -0.6145833   0.0000000   0.6145833), wk =   0.0100503
        k(  141) = (  -0.6041667  -0.0000000   0.6041667), wk =   0.0100503
        k(  142) = (  -0.5937500   0.0000000   0.5937500), wk =   0.0100503
        k(  143) = (  -0.5833333   0.0000000   0.5833333), wk =   0.0100503
        k(  144) = (  -0.5729167  -0.0000000   0.5729167), wk =   0.0100503
        k(  145) = (  -0.5625000   0.0000000   0.5625000), wk =   0.0100503
        k(  146) = (  -0.5520833   0.0000000   0.5520833), wk =   0.0100503
        k(  147) = (  -0.5416667  -0.0000000   0.5416667), wk =   0.0100503
        k(  148) = (  -0.5312500   0.0000000   0.5312500), wk =   0.0100503
        k(  149) = (  -0.5208333   0.0000000   0.5208333), wk =   0.0100503
        k(  150) = (  -0.5104167  -0.0000000   0.5104167), wk =   0.0100503
        k(  151) = (  -0.5000000   0.0000000   0.5000000), wk =   0.0100503
        k(  152) = (  -0.4895833   0.0000000   0.4895833), wk =   0.0100503
        k(  153) = (  -0.4791667  -0.0000000   0.4791667), wk =   0.0100503
        k(  154) = (  -0.4687500   0.0000000   0.4687500), wk =   0.0100503
        k(  155) = (  -0.4583333   0.0000000   0.4583333), wk =   0.0100503
        k(  156) = (  -0.4479167  -0.0000000   0.4479167), wk =   0.0100503
        k(  157) = (  -0.4375000   0.0000000   0.4375000), wk =   0.0100503
        k(  158) = (  -0.4270833   0.0000000   0.4270833), wk =   0.0100503
        k(  159) = (  -0.4166667  -0.0000000   0.4166667), wk =   0.0100503
        k(  160) = (  -0.4062500   0.0000000   0.4062500), wk =   0.0100503
        k(  161) = (  -0.3958333   0.0000000   0.3958333), wk =   0.0100503
        k(  162) = (  -0.3854167  -0.0000000   0.3854167), wk =   0.0100503
        k(  163) = (  -0.3750000   0.0000000   0.3750000), wk =   0.0100503
        k(  164) = (  -0.3645833   0.0000000   0.3645833), wk =   0.0100503
        k(  165) = (  -0.3541667  -0.0000000   0.3541667), wk =   0.0100503
        k(  166) = (  -0.3437500   0.0000000   0.3437500), wk =   0.0100503
        k(  167) = (  -0.3333333   0.0000000   0.3333333), wk =   0.0100503
        k(  168) = (  -0.3229167  -0.0000000   0.3229167), wk =   0.0100503
        k(  169) = (  -0.3125000   0.0000000   0.3125000), wk =   0.0100503
        k(  170) = (  -0.3020833   0.0000000   0.3020833), wk =   0.0100503
        k(  171) = (  -0.2916667  -0.0000000   0.2916667), wk =   0.0100503
        k(  172) = (  -0.2812500   0.0000000   0.2812500), wk =   0.0100503
        k(  173) = (  -0.2708333   0.0000000   0.2708333), wk =   0.0100503
        k(  174) = (  -0.2604167  -0.0000000   0.2604167), wk =   0.0100503
        k(  175) = (  -0.2500000   0.0000000   0.2500000), wk =   0.0100503
        k(  176) = (  -0.2395833   0.0000000   0.2395833), wk =   0.0100503
        k(  177) = (  -0.2291667  -0.0000000   0.2291667), wk =   0.0100503
        k(  178) = (  -0.2187500   0.0000000   0.2187500), wk =   0.0100503
        k(  179) = (  -0.2083333   0.0000000   0.2083333), wk =   0.0100503
        k(  180) = (  -0.1979167  -0.0000000   0.1979167), wk =   0.0100503
        k(  181) = (  -0.1875000   0.0000000   0.1875000), wk =   0.0100503
        k(  182) = (  -0.1770833   0.0000000   0.1770833), wk =   0.0100503
        k(  183) = (  -0.1666667  -0.0000000   0.1666667), wk =   0.0100503
        k(  184) = (  -0.1562500   0.0000000   0.1562500), wk =   0.0100503
        k(  185) = (  -0.1458333   0.0000000   0.1458333), wk =   0.0100503
        k(  186) = (  -0.1354167  -0.0000000   0.1354167), wk =   0.0100503
        k(  187) = (  -0.1250000   0.0000000   0.1250000), wk =   0.0100503
        k(  188) = (  -0.1145833   0.0000000   0.1145833), wk =   0.0100503
        k(  189) = (  -0.1041667  -0.0000000   0.1041667), wk =   0.0100503
        k(  190) = (  -0.0937500   0.0000000   0.0937500), wk =   0.0100503
        k(  191) = (  -0.0833333   0.0000000   0.0833333), wk =   0.0100503
        k(  192) = (  -0.0729167  -0.0000000   0.0729167), wk =   0.0100503
        k(  193) = (  -0.0625000   0.0000000   0.0625000), wk =   0.0100503
        k(  194) = (  -0.0520833   0.0000000   0.0520833), wk =   0.0100503
        k(  195) = (  -0.0416667  -0.0000000   0.0416667), wk =   0.0100503
        k(  196) = (  -0.0312500   0.0000000   0.0312500), wk =   0.0100503
        k(  197) = (  -0.0208333   0.0000000   0.0208333), wk =   0.0100503
        k(  198) = (  -0.0104167  -0.0000000   0.0104167), wk =   0.0100503
        k(  199) = (   0.0000000   0.0000000   0.0000000), wk =   0.0100503

                       cryst. coord.
        k(    1) = (   0.0000000   0.0000000   0.0000000), wk =   0.0100503
        k(    2) = (   0.0073529   0.0073529   0.0000000), wk =   0.0100503
        k(    3) = (   0.0147059   0.0147059   0.0000000), wk =   0.0100503
        k(    4) = (   0.0220588   0.0220588   0.0000000), wk =   0.0100503
        k(    5) = (   0.0294118   0.0294118   0.0000000), wk =   0.0100503
        k(    6) = (   0.0367647   0.0367647   0.0000000), wk =   0.0100503
        k(    7) = (   0.0441176   0.0441176   0.0000000), wk =   0.0100503
        k(    8) = (   0.0514706   0.0514706   0.0000000), wk =   0.0100503
        k(    9) = (   0.0588235   0.0588235   0.0000000), wk =   0.0100503
        k(   10) = (   0.0661765   0.0661765   0.0000000), wk =   0.0100503
        k(   11) = (   0.0735294   0.0735294   0.0000000), wk =   0.0100503
        k(   12) = (   0.0808824   0.0808824   0.0000000), wk =   0.0100503
        k(   13) = (   0.0882353   0.0882353   0.0000000), wk =   0.0100503
        k(   14) = (   0.0955882   0.0955882   0.0000000), wk =   0.0100503
        k(   15) = (   0.1029412   0.1029412   0.0000000), wk =   0.0100503
        k(   16) = (   0.1102941   0.1102941   0.0000000), wk =   0.0100503
        k(   17) = (   0.1176471   0.1176471   0.0000000), wk =   0.0100503
        k(   18) = (   0.1250000   0.1250000   0.0000000), wk =   0.0100503
        k(   19) = (   0.1323529   0.1323529   0.0000000), wk =   0.0100503
        k(   20) = (   0.1397059   0.1397059   0.0000000), wk =   0.0100503
        k(   21) = (   0.1470588   0.1470588   0.0000000), wk =   0.0100503
        k(   22) = (   0.1544118   0.1544118   0.0000000), wk =   0.0100503
        k(   23) = (   0.1617647   0.1617647   0.0000000), wk =   0.0100503
        k(   24) = (   0.1691176   0.1691176   0.0000000), wk =   0.0100503
        k(   25) = (   0.1764706   0.1764706   0.0000000), wk =   0.0100503
        k(   26) = (   0.1838235   0.1838235   0.0000000), wk =   0.0100503
        k(   27) = (   0.1911765   0.1911765   0.0000000), wk =   0.0100503
        k(   28) = (   0.1985294   0.1985294   0.0000000), wk =   0.0100503
        k(   29) = (   0.2058824   0.2058824   0.0000000), wk =   0.0100503
        k(   30) = (   0.2132353   0.2132353   0.0000000), wk =   0.0100503
        k(   31) = (   0.2205882   0.2205882   0.0000000), wk =   0.0100503
        k(   32) = (   0.2279412   0.2279412   0.0000000), wk =   0.0100503
        k(   33) = (   0.2352941   0.2352941   0.0000000), wk =   0.0100503
        k(   34) = (   0.2426471   0.2426471   0.0000000), wk =   0.0100503
        k(   35) = (   0.2500000   0.2500000   0.0000000), wk =   0.0100503
        k(   36) = (   0.2573529   0.2573529   0.0000000), wk =   0.0100503
        k(   37) = (   0.2647059   0.2647059   0.0000000), wk =   0.0100503
        k(   38) = (   0.2720588   0.2720588   0.0000000), wk =   0.0100503
        k(   39) = (   0.2794118   0.2794118   0.0000000), wk =   0.0100503
        k(   40) = (   0.2867647   0.2867647   0.0000000), wk =   0.0100503
        k(   41) = (   0.2941176   0.2941176   0.0000000), wk =   0.0100503
        k(   42) = (   0.3014706   0.3014706   0.0000000), wk =   0.0100503
        k(   43) = (   0.3088235   0.3088235   0.0000000), wk =   0.0100503
        k(   44) = (   0.3161765   0.3161765   0.0000000), wk =   0.0100503
        k(   45) = (   0.3235294   0.3235294   0.0000000), wk =   0.0100503
        k(   46) = (   0.3308824   0.3308824   0.0000000), wk =   0.0100503
        k(   47) = (   0.3382353   0.3382353   0.0000000), wk =   0.0100503
        k(   48) = (   0.3455882   0.3455882   0.0000000), wk =   0.0100503
        k(   49) = (   0.3529412   0.3529412   0.0000000), wk =   0.0100503
        k(   50) = (   0.3602941   0.3602941   0.0000000), wk =   0.0100503
        k(   51) = (   0.3676471   0.3676471   0.0000000), wk =   0.0100503
        k(   52) = (   0.3750000   0.3750000   0.0000000), wk =   0.0100503
        k(   53) = (   0.3823529   0.3823529   0.0000000), wk =   0.0100503
        k(   54) = (   0.3897059   0.3897059   0.0000000), wk =   0.0100503
        k(   55) = (   0.3970588   0.3970588   0.0000000), wk =   0.0100503
        k(   56) = (   0.4044118   0.4044118   0.0000000), wk =   0.0100503
        k(   57) = (   0.4117647   0.4117647   0.0000000), wk =   0.0100503
        k(   58) = (   0.4191176   0.4191176   0.0000000), wk =   0.0100503
        k(   59) = (   0.4264706   0.4264706   0.0000000), wk =   0.0100503
        k(   60) = (   0.4338235   0.4338235   0.0000000), wk =   0.0100503
        k(   61) = (   0.4411765   0.4411765   0.0000000), wk =   0.0100503
        k(   62) = (   0.4485294   0.4485294   0.0000000), wk =   0.0100503
        k(   63) = (   0.4558824   0.4558824   0.0000000), wk =   0.0100503
        k(   64) = (   0.4632353   0.4632353   0.0000000), wk =   0.0100503
        k(   65) = (   0.4705882   0.4705882   0.0000000), wk =   0.0100503
        k(   66) = (   0.4779412   0.4779412   0.0000000), wk =   0.0100503
        k(   67) = (   0.4852941   0.4852941   0.0000000), wk =   0.0100503
        k(   68) = (   0.4926471   0.4926471   0.0000000), wk =   0.0100503
        k(   69) = (   0.5000000   0.5000000   0.0000000), wk =   0.0100503
        k(   70) = (   0.5073529   0.5000000   0.0073529), wk =   0.0100503
        k(   71) = (   0.5147059   0.5000000   0.0147059), wk =   0.0100503
        k(   72) = (   0.5220588   0.5000000   0.0220588), wk =   0.0100503
        k(   73) = (   0.5294118   0.5000000   0.0294118), wk =   0.0100503
        k(   74) = (   0.5367647   0.5000000   0.0367647), wk =   0.0100503
        k(   75) = (   0.5441176   0.5000000   0.0441176), wk =   0.0100503
        k(   76) = (   0.5514706   0.5000000   0.0514706), wk =   0.0100503
        k(   77) = (   0.5588235   0.5000000   0.0588235), wk =   0.0100503
        k(   78) = (   0.5661765   0.5000000   0.0661765), wk =   0.0100503
        k(   79) = (   0.5735294   0.5000000   0.0735294), wk =   0.0100503
        k(   80) = (   0.5808824   0.5000000   0.0808824), wk =   0.0100503
        k(   81) = (   0.5882353   0.5000000   0.0882353), wk =   0.0100503
        k(   82) = (   0.5955882   0.5000000   0.0955882), wk =   0.0100503
        k(   83) = (   0.6029412   0.5000000   0.1029412), wk =   0.0100503
        k(   84) = (   0.6102941   0.5000000   0.1102941), wk =   0.0100503
        k(   85) = (   0.6176471   0.5000000   0.1176471), wk =   0.0100503
        k(   86) = (   0.6250000   0.5000000   0.1250000), wk =   0.0100503
        k(   87) = (   0.6323529   0.5000000   0.1323529), wk =   0.0100503
        k(   88) = (   0.6397059   0.5000000   0.1397059), wk =   0.0100503
        k(   89) = (   0.6470588   0.5000000   0.1470588), wk =   0.0100503
        k(   90) = (   0.6544118   0.5000000   0.1544118), wk =   0.0100503
        k(   91) = (   0.6617647   0.5000000   0.1617647), wk =   0.0100503
        k(   92) = (   0.6691176   0.5000000   0.1691176), wk =   0.0100503
        k(   93) = (   0.6764706   0.5000000   0.1764706), wk =   0.0100503
        k(   94) = (   0.6838235   0.5000000   0.1838235), wk =   0.0100503
        k(   95) = (   0.6911765   0.5000000   0.1911765), wk =   0.0100503
        k(   96) = (   0.6985294   0.5000000   0.1985294), wk =   0.0100503
        k(   97) = (   0.7058824   0.5000000   0.2058824), wk =   0.0100503
        k(   98) = (   0.7132353   0.5000000   0.2132353), wk =   0.0100503
        k(   99) = (   0.7205882   0.5000000   0.2205882), wk =   0.0100503
        k(  100) = (   0.7279412   0.5000000   0.2279412), wk =   0.0100503
        k(  101) = (   0.7352941   0.5000000   0.2352941), wk =   0.0100503
        k(  102) = (   0.7426471   0.5000000   0.2426471), wk =   0.0100503
        k(  103) = (   0.7500000   0.5000000   0.2500000), wk =   0.0100503
        k(  104) = (   0.7500000   0.4947917   0.2552083), wk =   0.0100503
        k(  105) = (   0.7500000   0.4895833   0.2604167), wk =   0.0100503
        k(  106) = (   0.7500000   0.4843750   0.2656250), wk =   0.0100503
        k(  107) = (   0.7500000   0.4791667   0.2708333), wk =   0.0100503
        k(  108) = (   0.7500000   0.4739583   0.2760417), wk =   0.0100503
        k(  109) = (   0.7500000   0.4687500   0.2812500), wk =   0.0100503
        k(  110) = (   0.7500000   0.4635417   0.2864583), wk =   0.0100503
        k(  111) = (   0.7500000   0.4583333   0.2916667), wk =   0.0100503
        k(  112) = (   0.7500000   0.4531250   0.2968750), wk =   0.0100503
        k(  113) = (   0.7500000   0.4479167   0.3020833), wk =   0.0100503
        k(  114) = (   0.7500000   0.4427083   0.3072917), wk =   0.0100503
        k(  115) = (   0.7500000   0.4375000   0.3125000), wk =   0.0100503
        k(  116) = (   0.7500000   0.4322917   0.3177083), wk =   0.0100503
        k(  117) = (   0.7500000   0.4270833   0.3229167), wk =   0.0100503
        k(  118) = (   0.7500000   0.4218750   0.3281250), wk =   0.0100503
        k(  119) = (   0.7500000   0.4166667   0.3333333), wk =   0.0100503
        k(  120) = (   0.7500000   0.4114583   0.3385417), wk =   0.0100503
        k(  121) = (   0.7500000   0.4062500   0.3437500), wk =   0.0100503
        k(  122) = (   0.7500000   0.4010417   0.3489583), wk =   0.0100503
        k(  123) = (   0.7500000   0.3958333   0.3541667), wk =   0.0100503
        k(  124) = (   0.7500000   0.3906250   0.3593750), wk =   0.0100503
        k(  125) = (   0.7500000   0.3854167   0.3645833), wk =   0.0100503
        k(  126) = (   0.7500000   0.3802083   0.3697917), wk =   0.0100503
        k(  127) = (   0.7500000   0.3750000   0.3750000), wk =   0.0100503
        k(  128) = (   0.7395833   0.3697917   0.3697917), wk =   0.0100503
        k(  129) = (   0.7291667   0.3645833   0.3645833), wk =   0.0100503
        k(  130) = (   0.7187500   0.3593750   0.3593750), wk =   0.0100503
        k(  131) = (   0.7083333   0.3541667   0.3541667), wk =   0.0100503
        k(  132) = (   0.6979167   0.3489583   0.3489583), wk =   0.0100503
        k(  133) = (   0.6875000   0.3437500   0.3437500), wk =   0.0100503
        k(  134) = (   0.6770833   0.3385417   0.3385417), wk =   0.0100503
        k(  135) = (   0.6666667   0.3333333   0.3333333), wk =   0.0100503
        k(  136) = (   0.6562500   0.3281250   0.3281250), wk =   0.0100503
        k(  137) = (   0.6458333   0.3229167   0.3229167), wk =   0.0100503
        k(  138) = (   0.6354167   0.3177083   0.3177083), wk =   0.0100503
        k(  139) = (   0.6250000   0.3125000   0.3125000), wk =   0.0100503
        k(  140) = (   0.6145833   0.3072917   0.3072917), wk =   0.0100503
        k(  141) = (   0.6041667   0.3020833   0.3020833), wk =   0.0100503
        k(  142) = (   0.5937500   0.2968750   0.2968750), wk =   0.0100503
        k(  143) = (   0.5833333   0.2916667   0.2916667), wk =   0.0100503
        k(  144) = (   0.5729167   0.2864583   0.2864583), wk =   0.0100503
        k(  145) = (   0.5625000   0.2812500   0.2812500), wk =   0.0100503
        k(  146) = (   0.5520833   0.2760417   0.2760417), wk =   0.0100503
        k(  147) = (   0.5416667   0.2708333   0.2708333), wk =   0.0100503
        k(  148) = (   0.5312500   0.2656250   0.2656250), wk =   0.0100503
        k(  149) = (   0.5208333   0.2604167   0.2604167), wk =   0.0100503
        k(  150) = (   0.5104167   0.2552083   0.2552083), wk =   0.0100503
        k(  151) = (   0.5000000   0.2500000   0.2500000), wk =   0.0100503
        k(  152) = (   0.4895833   0.2447917   0.2447917), wk =   0.0100503
        k(  153) = (   0.4791667   0.2395833   0.2395833), wk =   0.0100503
        k(  154) = (   0.4687500   0.2343750   0.2343750), wk =   0.0100503
        k(  155) = (   0.4583333   0.2291667   0.2291667), wk =   0.0100503
        k(  156) = (   0.4479167   0.2239583   0.2239583), wk =   0.0100503
        k(  157) = (   0.4375000   0.2187500   0.2187500), wk =   0.0100503
        k(  158) = (   0.4270833   0.2135417   0.2135417), wk =   0.0100503
        k(  159) = (   0.4166667   0.2083333   0.2083333), wk =   0.0100503
        k(  160) = (   0.4062500   0.2031250   0.2031250), wk =   0.0100503
        k(  161) = (   0.3958333   0.1979167   0.1979167), wk =   0.0100503
        k(  162) = (   0.3854167   0.1927083   0.1927083), wk =   0.0100503
        k(  163) = (   0.3750000   0.1875000   0.1875000), wk =   0.0100503
        k(  164) = (   0.3645833   0.1822917   0.1822917), wk =   0.0100503
        k(  165) = (   0.3541667   0.1770833   0.1770833), wk =   0.0100503
        k(  166) = (   0.3437500   0.1718750   0.1718750), wk =   0.0100503
        k(  167) = (   0.3333333   0.1666667   0.1666667), wk =   0.0100503
        k(  168) = (   0.3229167   0.1614583   0.1614583), wk =   0.0100503
        k(  169) = (   0.3125000   0.1562500   0.1562500), wk =   0.0100503
        k(  170) = (   0.3020833   0.1510417   0.1510417), wk =   0.0100503
        k(  171) = (   0.2916667   0.1458333   0.1458333), wk =   0.0100503
        k(  172) = (   0.2812500   0.1406250   0.1406250), wk =   0.0100503
        k(  173) = (   0.2708333   0.1354167   0.1354167), wk =   0.0100503
        k(  174) = (   0.2604167   0.1302083   0.1302083), wk =   0.0100503
        k(  175) = (   0.2500000   0.1250000   0.1250000), wk =   0.0100503
        k(  176) = (   0.2395833   0.1197917   0.1197917), wk =   0.0100503
        k(  177) = (   0.2291667   0.1145833   0.1145833), wk =   0.0100503
        k(  178) = (   0.2187500   0.1093750   0.1093750), wk =   0.0100503
        k(  179) = (   0.2083333   0.1041667   0.1041667), wk =   0.0100503
        k(  180) = (   0.1979167   0.0989583   0.0989583), wk =   0.0100503
        k(  181) = (   0.1875000   0.0937500   0.0937500), wk =   0.0100503
        k(  182) = (   0.1770833   0.0885417   0.0885417), wk =   0.0100503
        k(  183) = (   0.1666667   0.0833333   0.0833333), wk =   0.0100503
        k(  184) = (   0.1562500   0.0781250   0.0781250), wk =   0.0100503
        k(  185) = (   0.1458333   0.0729167   0.0729167), wk =   0.0100503
        k(  186) = (   0.1354167   0.0677083   0.0677083), wk =   0.0100503
        k(  187) = (   0.1250000   0.0625000   0.0625000), wk =   0.0100503
        k(  188) = (   0.1145833   0.0572917   0.0572917), wk =   0.0100503
        k(  189) = (   0.1041667   0.0520833   0.0520833), wk =   0.0100503
        k(  190) = (   0.0937500   0.0468750   0.0468750), wk =   0.0100503
        k(  191) = (   0.0833333   0.0416667   0.0416667), wk =   0.0100503
        k(  192) = (   0.0729167   0.0364583   0.0364583), wk =   0.0100503
        k(  193) = (   0.0625000   0.0312500   0.0312500), wk =   0.0100503
        k(  194) = (   0.0520833   0.0260417   0.0260417), wk =   0.0100503
        k(  195) = (   0.0416667   0.0208333   0.0208333), wk =   0.0100503
        k(  196) = (   0.0312500   0.0156250   0.0156250), wk =   0.0100503
        k(  197) = (   0.0208333   0.0104167   0.0104167), wk =   0.0100503
        k(  198) = (   0.0104167   0.0052083   0.0052083), wk =   0.0100503
        k(  199) = (   0.0000000   0.0000000   0.0000000), wk =   0.0100503

     Dense  grid:     6231 G-vectors     FFT dimensions: (  30,  30,  30)

     Dynamical RAM for                 wfc:       0.04 MB

     Dynamical RAM for     wfc (w. buffer):       1.84 MB

     Dynamical RAM for           str. fact:       0.05 MB

     Dynamical RAM for           local pot:       0.00 MB

     Dynamical RAM for          nlocal pot:       0.05 MB

     Dynamical RAM for                qrad:       0.77 MB

     Dynamical RAM for          rho,v,vnew:       0.24 MB

     Dynamical RAM for           G-vectors:       0.10 MB

     Dynamical RAM for          h,s,v(r/c):       0.03 MB

     Dynamical RAM for          <psi|beta>:       0.00 MB

     Dynamical RAM for                 psi:       0.07 MB

     Dynamical RAM for                hpsi:       0.07 MB

     Dynamical RAM for      wfcinit/wfcrot:       0.08 MB

     Estimated static dynamical RAM per process >       3.39 MB

     Estimated max dynamical RAM per process >       3.56 MB

     Estimated total dynamical RAM >      56.95 MB

     The potential is recalculated from file :
     temp/bn.save/charge-density

     Starting wfcs are    8 randomized atomic wfcs +    4 random wfcs

     Band Structure Calculation
     Davidson diagonalization with overlap

     Computing kpt #:     1  of    50 on this pool
     total cpu time spent up to now is        0.4 secs

     Computing kpt #:     2  of    50 on this pool
     total cpu time spent up to now is        0.5 secs

     Computing kpt #:     3  of    50 on this pool
     total cpu time spent up to now is        0.6 secs

     Computing kpt #:     4  of    50 on this pool
     total cpu time spent up to now is        0.7 secs

     Computing kpt #:     5  of    50 on this pool
     total cpu time spent up to now is        0.7 secs

     Computing kpt #:     6  of    50 on this pool
     total cpu time spent up to now is        0.8 secs

     Computing kpt #:     7  of    50 on this pool
     total cpu time spent up to now is        0.9 secs

     Computing kpt #:     8  of    50 on this pool
     total cpu time spent up to now is        1.0 secs

     Computing kpt #:     9  of    50 on this pool
     total cpu time spent up to now is        1.0 secs

     Computing kpt #:    10  of    50 on this pool
     total cpu time spent up to now is        1.1 secs

     Computing kpt #:    11  of    50 on this pool
     total cpu time spent up to now is        1.2 secs

     Computing kpt #:    12  of    50 on this pool
     total cpu time spent up to now is        1.2 secs

     Computing kpt #:    13  of    50 on this pool
     total cpu time spent up to now is        1.3 secs

     Computing kpt #:    14  of    50 on this pool
     total cpu time spent up to now is        1.4 secs

     Computing kpt #:    15  of    50 on this pool
     total cpu time spent up to now is        1.5 secs

     Computing kpt #:    16  of    50 on this pool
     total cpu time spent up to now is        1.5 secs

     Computing kpt #:    17  of    50 on this pool
     total cpu time spent up to now is        1.6 secs

     Computing kpt #:    18  of    50 on this pool
     total cpu time spent up to now is        1.7 secs

     Computing kpt #:    19  of    50 on this pool
     total cpu time spent up to now is        1.7 secs

     Computing kpt #:    20  of    50 on this pool
     total cpu time spent up to now is        1.8 secs

     Computing kpt #:    21  of    50 on this pool
     total cpu time spent up to now is        1.9 secs

     Computing kpt #:    22  of    50 on this pool
     total cpu time spent up to now is        1.9 secs

     Computing kpt #:    23  of    50 on this pool
     total cpu time spent up to now is        2.0 secs

     Computing kpt #:    24  of    50 on this pool
     total cpu time spent up to now is        2.1 secs

     Computing kpt #:    25  of    50 on this pool
     total cpu time spent up to now is        2.2 secs

     Computing kpt #:    26  of    50 on this pool
     total cpu time spent up to now is        2.2 secs

     Computing kpt #:    27  of    50 on this pool
     total cpu time spent up to now is        2.3 secs

     Computing kpt #:    28  of    50 on this pool
     total cpu time spent up to now is        2.4 secs

     Computing kpt #:    29  of    50 on this pool
     total cpu time spent up to now is        2.4 secs

     Computing kpt #:    30  of    50 on this pool
     total cpu time spent up to now is        2.5 secs

     Computing kpt #:    31  of    50 on this pool
     total cpu time spent up to now is        2.6 secs

     Computing kpt #:    32  of    50 on this pool
     total cpu time spent up to now is        2.7 secs

     Computing kpt #:    33  of    50 on this pool
     total cpu time spent up to now is        2.7 secs

     Computing kpt #:    34  of    50 on this pool
     total cpu time spent up to now is        2.8 secs

     Computing kpt #:    35  of    50 on this pool
     total cpu time spent up to now is        2.9 secs

     Computing kpt #:    36  of    50 on this pool
     total cpu time spent up to now is        2.9 secs

     Computing kpt #:    37  of    50 on this pool
     total cpu time spent up to now is        3.0 secs

     Computing kpt #:    38  of    50 on this pool
     total cpu time spent up to now is        3.1 secs

     Computing kpt #:    39  of    50 on this pool
     total cpu time spent up to now is        3.2 secs

     Computing kpt #:    40  of    50 on this pool
     total cpu time spent up to now is        3.2 secs

     Computing kpt #:    41  of    50 on this pool
     total cpu time spent up to now is        3.3 secs

     Computing kpt #:    42  of    50 on this pool
     total cpu time spent up to now is        3.4 secs

     Computing kpt #:    43  of    50 on this pool
     total cpu time spent up to now is        3.4 secs

     Computing kpt #:    44  of    50 on this pool
     total cpu time spent up to now is        3.5 secs

     Computing kpt #:    45  of    50 on this pool
     total cpu time spent up to now is        3.6 secs

     Computing kpt #:    46  of    50 on this pool
     total cpu time spent up to now is        3.6 secs

     Computing kpt #:    47  of    50 on this pool
     total cpu time spent up to now is        3.7 secs

     Computing kpt #:    48  of    50 on this pool
     total cpu time spent up to now is        3.8 secs

     Computing kpt #:    49  of    50 on this pool
     total cpu time spent up to now is        3.9 secs

     Computing kpt #:    50  of    50 on this pool
     total cpu time spent up to now is        3.9 secs

     ethr =  1.25E-12,  avg # of iterations = 28.3

     total cpu time spent up to now is        3.9 secs

     End of band structure calculation

          k = 0.0000 0.0000 0.0000 (   749 PWs)   bands (ev):

    -9.1495  10.9216  10.9216  10.9216  19.6703  19.6703  19.6703  21.3697
    35.4041  39.0945  39.0945  39.1556

          k = 0.0000 0.0000 0.0147 (   749 PWs)   bands (ev):

    -9.1478  10.9168  10.9168  10.9168  19.6671  19.6764  19.6764  21.3755
    35.4015  38.7075  39.0970  39.1603

          k = 0.0000 0.0000 0.0294 (   769 PWs)   bands (ev):

    -9.1425  10.9014  10.9021  10.9021  19.6565  19.6945  19.6945  21.3920
    35.3929  38.2958  39.1044  39.1742

          k = 0.0000 0.0000 0.0441 (   769 PWs)   bands (ev):

    -9.1337  10.8778  10.8786  10.8786  19.6409  19.7251  19.7251  21.4199
    35.3752  37.8946  39.1168  39.1975

          k = 0.0000 0.0000 0.0588 (   777 PWs)   bands (ev):

    -9.1214  10.8449  10.8455  10.8455  19.6195  19.7674  19.7674  21.4579
    35.3422  37.5125  39.1340  39.2301

          k = 0.0000 0.0000 0.0735 (   777 PWs)   bands (ev):

    -9.1055  10.8031  10.8041  10.8041  19.5930  19.8215  19.8215  21.5055
    35.2833  37.1621  39.1563  39.2721

          k = 0.0000 0.0000 0.0882 (   785 PWs)   bands (ev):

    -9.0861  10.7514  10.7542  10.7542  19.5615  19.8868  19.8868  21.5617
    35.1827  36.8606  39.1834  39.3234

          k = 0.0000 0.0000 0.1029 (   785 PWs)   bands (ev):

    -9.0632  10.6921  10.6965  10.6965  19.5261  19.9628  19.9628  21.6258
    35.0230  36.6271  39.2155  39.3840

          k = 0.0000 0.0000 0.1176 (   785 PWs)   bands (ev):

    -9.0368  10.6246  10.6314  10.6314  19.4868  20.0490  20.0490  21.6968
    34.7962  36.4704  39.2526  39.4538

          k = 0.0000 0.0000 0.1324 (   785 PWs)   bands (ev):

    -9.0068  10.5491  10.5594  10.5594  19.4442  20.1449  20.1449  21.7736
    34.5112  36.3826  39.2945  39.5329

          k = 0.0000 0.0000 0.1471 (   785 PWs)   bands (ev):

    -8.9734  10.4660  10.4810  10.4810  19.3986  20.2499  20.2499  21.8554
    34.1865  36.3459  39.3415  39.6211

          k = 0.0000 0.0000 0.1618 (   793 PWs)   bands (ev):

    -8.9365  10.3757  10.3964  10.3964  19.3501  20.3632  20.3632  21.9411
    33.8393  36.3438  39.3933  39.7183

          k = 0.0000 0.0000 0.1765 (   797 PWs)   bands (ev):

    -8.8962  10.2785  10.3064  10.3064  19.2994  20.4846  20.4846  22.0297
    33.4815  36.3652  39.4501  39.8245

          k = 0.0000 0.0000 0.1912 (   797 PWs)   bands (ev):

    -8.8524  10.1748  10.2123  10.2123  19.2459  20.6136  20.6136  22.1204
    33.1210  36.4026  39.5118  39.9399

          k = 0.0000 0.0000 0.2059 (   797 PWs)   bands (ev):

    -8.8051  10.0649  10.1140  10.1140  19.1902  20.7494  20.7494  22.2122
    32.7628  36.4516  39.5785  40.0643

          k = 0.0000 0.0000 0.2206 (   797 PWs)   bands (ev):

    -8.7544   9.9491  10.0120  10.0120  19.1323  20.8916  20.8916  22.3039
    32.4105  36.5092  39.6501  40.1975

          k = 0.0000 0.0000 0.2353 (   797 PWs)   bands (ev):

    -8.7003   9.8280   9.9068   9.9068  19.0723  21.0396  21.0396  22.3943
    32.0669  36.5732  39.7266  40.3394

          k = 0.0000 0.0000 0.2500 (   797 PWs)   bands (ev):

    -8.6428   9.7016   9.7990   9.7990  19.0103  21.1929  21.1929  22.4823
    31.7340  36.6423  39.8081  40.4900

          k = 0.0000 0.0000 0.2647 (   797 PWs)   bands (ev):

    -8.5819   9.5705   9.6889   9.6889  18.9463  21.3510  21.3510  22.5667
    31.4138  36.7151  39.8945  40.6491

          k = 0.0000 0.0000 0.2794 (   797 PWs)   bands (ev):

    -8.5176   9.4348   9.5769   9.5769  18.8804  21.5136  21.5136  22.6461
    31.1081  36.7906  39.9859  40.8166

          k = 0.0000 0.0000 0.2941 (   797 PWs)   bands (ev):

    -8.4501   9.2949   9.4635   9.4635  18.8126  21.6801  21.6801  22.7191
    30.8185  36.8679  40.0822  40.9923

          k = 0.0000 0.0000 0.3088 (   797 PWs)   bands (ev):

    -8.3792   9.1511   9.3491   9.3491  18.7428  21.8503  21.8503  22.7843
    30.5465  36.9463  40.1834  41.1760

          k = 0.0000 0.0000 0.3235 (   797 PWs)   bands (ev):

    -8.3051   9.0035   9.2338   9.2338  18.6712  22.0237  22.0237  22.8402
    30.2939  37.0251  40.2895  41.3675

          k = 0.0000 0.0000 0.3382 (   793 PWs)   bands (ev):

    -8.2277   8.8525   9.1182   9.1182  18.5979  22.2002  22.2002  22.8854
    30.0620  37.1037  40.4006  41.5667

          k = 0.0000 0.0000 0.3529 (   801 PWs)   bands (ev):

    -8.1471   8.6981   9.0020   9.0020  18.5225  22.3785  22.3785  22.9184
    29.8522  37.1813  40.5166  41.7729

          k = 0.0000 0.0000 0.3676 (   801 PWs)   bands (ev):

    -8.0633   8.5407   8.8863   8.8863  18.4453  22.5596  22.5596  22.9382
    29.6658  37.2575  40.6376  41.9863

          k = 0.0000 0.0000 0.3824 (   801 PWs)   bands (ev):

    -7.9764   8.3805   8.7710   8.7710  18.3664  22.7425  22.7425  22.9438
    29.5037  37.3317  40.7635  42.2064

          k = 0.0000 0.0000 0.3971 (   801 PWs)   bands (ev):

    -7.8864   8.2175   8.6563   8.6563  18.2856  22.9271  22.9271  22.9345
    29.3665  37.4036  40.8943  42.4326

          k = 0.0000 0.0000 0.4118 (   801 PWs)   bands (ev):

    -7.7933   8.0521   8.5425   8.5425  18.2030  22.9101  23.1132  23.1132
    29.2544  37.4726  41.0301  42.6644

          k = 0.0000 0.0000 0.4265 (   801 PWs)   bands (ev):

    -7.6972   7.8842   8.4297   8.4297  18.1187  22.8707  23.3003  23.3003
    29.1671  37.5385  41.1708  42.9014

          k = 0.0000 0.0000 0.4412 (   801 PWs)   bands (ev):

    -7.5982   7.7142   8.3182   8.3182  18.0326  22.8169  23.4884  23.4884
    29.1039  37.6008  41.3164  43.1427

          k = 0.0000 0.0000 0.4559 (   801 PWs)   bands (ev):

    -7.4963   7.5421   8.2080   8.2080  17.9449  22.7498  23.6770  23.6770
    29.0637  37.6595  41.4669  43.3876

          k = 0.0000 0.0000 0.4706 (   809 PWs)   bands (ev):

    -7.3916   7.3681   8.0993   8.0993  17.8555  22.6704  23.8657  23.8657
    29.0445  37.7137  41.6224  43.6347

          k = 0.0000 0.0000 0.4853 (   817 PWs)   bands (ev):

    -7.2841   7.1921   7.9924   7.9924  17.7644  22.5804  24.0549  24.0549
    29.0444  37.7635  41.7828  43.8834

          k = 0.0000 0.0000 0.5000 (   817 PWs)   bands (ev):

    -7.1739   7.0147   7.8873   7.8873  17.6721  22.4824  24.2441  24.2441
    29.0630  37.8098  41.9482  44.1320

          k = 0.0000 0.0000 0.5147 (   817 PWs)   bands (ev):

    -7.0611   6.8358   7.7843   7.7843  17.5785  22.3776  24.4331  24.4331
    29.0973  37.8519  42.1185  44.3787

          k = 0.0000 0.0000 0.5294 (   817 PWs)   bands (ev):

    -6.9457   6.6555   7.6833   7.6833  17.4837  22.2676  24.6216  24.6216
    29.1454  37.8897  42.2937  44.6215

          k = 0.0000 0.0000 0.5441 (   801 PWs)   bands (ev):

    -6.8278   6.4750   7.5849   7.5849  17.3882  22.1544  24.8099  24.8099
    29.2060  37.9241  42.4738  44.8580

          k = 0.0000 0.0000 0.5588 (   801 PWs)   bands (ev):

    -6.7076   6.2924   7.4884   7.4884  17.2915  22.0390  24.9968  24.9968
    29.2761  37.9535  42.6588  45.0849

          k = 0.0000 0.0000 0.5735 (   801 PWs)   bands (ev):

    -6.5852   6.1090   7.3944   7.3944  17.1943  21.9230  25.1825  25.1825
    29.3547  37.9788  42.8488  45.2989

          k = 0.0000 0.0000 0.5882 (   801 PWs)   bands (ev):

    -6.4607   5.9248   7.3029   7.3029  17.0966  21.8076  25.3667  25.3667
    29.4400  38.0002  43.0437  45.4961

          k = 0.0000 0.0000 0.6029 (   801 PWs)   bands (ev):

    -6.3342   5.7400   7.2140   7.2140  16.9988  21.6936  25.5494  25.5494
    29.5310  38.0178  43.2435  45.6723

          k = 0.0000 0.0000 0.6176 (   801 PWs)   bands (ev):

    -6.2059   5.5549   7.1277   7.1277  16.9011  21.5820  25.7300  25.7300
    29.6261  38.0318  43.4483  45.8234

          k = 0.0000 0.0000 0.6324 (   801 PWs)   bands (ev):

    -6.0760   5.3697   7.0442   7.0442  16.8039  21.4733  25.9085  25.9085
    29.7244  38.0424  43.6579  45.9457

          k = 0.0000 0.0000 0.6471 (   797 PWs)   bands (ev):

    -5.9445   5.1847   6.9635   6.9635  16.7076  21.3683  26.0846  26.0846
    29.8254  38.0509  43.8725  46.0365

          k = 0.0000 0.0000 0.6618 (   797 PWs)   bands (ev):

    -5.8118   4.9999   6.8857   6.8857  16.6121  21.2671  26.2578  26.2578
    29.9271  38.0553  44.0920  46.0945

          k = 0.0000 0.0000 0.6765 (   797 PWs)   bands (ev):

    -5.6780   4.8156   6.8108   6.8108  16.5181  21.1702  26.4280  26.4280
    30.0293  38.0570  44.3164  46.1201

          k = 0.0000 0.0000 0.6912 (   797 PWs)   bands (ev):

    -5.5435   4.6323   6.7389   6.7389  16.4257  21.0778  26.5948  26.5948
    30.1312  38.0561  44.5457  46.1154

          k = 0.0000 0.0000 0.7059 (   797 PWs)   bands (ev):

    -5.4084   4.4503   6.6701   6.6701  16.3353  20.9900  26.7578  26.7578
    30.2321  38.0531  44.7799  46.0836

          k = 0.0000 0.0000 0.7206 (   785 PWs)   bands (ev):

    -5.2730   4.2701   6.6045   6.6045  16.2474  20.9069  26.9176  26.9176
    30.3322  38.0489  45.0190  46.0293

          k = 0.0000 0.0000 0.7353 (   789 PWs)   bands (ev):

    -5.1379   4.0917   6.5417   6.5417  16.1620  20.8286  27.0717  27.0717
    30.4293  38.0421  45.2630  45.9551

          k = 0.0000 0.0000 0.7500 (   789 PWs)   bands (ev):

    -5.0032   3.9157   6.4823   6.4823  16.0796  20.7551  27.2213  27.2213
    30.5240  38.0338  45.5119  45.8670

          k = 0.0000 0.0000 0.7647 (   789 PWs)   bands (ev):

    -4.8695   3.7426   6.4260   6.4260  16.0003  20.6863  27.3656  27.3656
    30.6157  38.0242  45.7657  45.7683

          k = 0.0000 0.0000 0.7794 (   789 PWs)   bands (ev):

    -4.7373   3.5731   6.3730   6.3730  15.9246  20.6222  27.5043  27.5043
    30.7039  38.0137  45.6624  45.6624

          k = 0.0000 0.0000 0.7941 (   789 PWs)   bands (ev):

    -4.6072   3.4077   6.3232   6.3232  15.8526  20.5628  27.6369  27.6369
    30.7882  38.0025  45.5523  45.5523

          k = 0.0000 0.0000 0.8088 (   789 PWs)   bands (ev):

    -4.4796   3.2470   6.2768   6.2768  15.7847  20.5079  27.7629  27.7629
    30.8683  37.9908  45.4408  45.4408

          k = 0.0000 0.0000 0.8235 (   789 PWs)   bands (ev):

    -4.3555   3.0920   6.2337   6.2337  15.7209  20.4575  27.8819  27.8819
    30.9438  37.9789  45.3301  45.3301

          k = 0.0000 0.0000 0.8382 (   785 PWs)   bands (ev):

    -4.2354   2.9434   6.1940   6.1940  15.6616  20.4116  27.9937  27.9937
    31.0150  37.9676  45.2223  45.2223

          k = 0.0000 0.0000 0.8529 (   785 PWs)   bands (ev):

    -4.1204   2.8021   6.1576   6.1576  15.6068  20.3699  28.0975  28.0975
    31.0805  37.9558  45.1188  45.1188

          k = 0.0000 0.0000 0.8676 (   785 PWs)   bands (ev):

    -4.0113   2.6691   6.1247   6.1247  15.5568  20.3325  28.1930  28.1930
    31.1405  37.9445  45.0210  45.0210

          k = 0.0000 0.0000 0.8824 (   785 PWs)   bands (ev):

    -3.9093   2.5456   6.0951   6.0951  15.5116  20.2992  28.2795  28.2795
    31.1951  37.9337  44.9303  44.9303

          k = 0.0000 0.0000 0.8971 (   785 PWs)   bands (ev):

    -3.8154   2.4325   6.0690   6.0690  15.4715  20.2700  28.3571  28.3571
    31.2437  37.9238  44.8480  44.8480

          k = 0.0000 0.0000 0.9118 (   786 PWs)   bands (ev):

    -3.7307   2.3311   6.0463   6.0463  15.4365  20.2449  28.4252  28.4252
    31.2858  37.9146  44.7747  44.7747

          k = 0.0000 0.0000 0.9265 (   786 PWs)   bands (ev):

    -3.6564   2.2427   6.0272   6.0272  15.4067  20.2237  28.4835  28.4835
    31.3220  37.9067  44.7115  44.7115

          k = 0.0000 0.0000 0.9412 (   786 PWs)   bands (ev):

    -3.5937   2.1684   6.0115   6.0115  15.3823  20.2065  28.5316  28.5316
    31.3518  37.9001  44.6588  44.6588

          k = 0.0000 0.0000 0.9559 (   790 PWs)   bands (ev):

    -3.5437   2.1092   5.9992   5.9992  15.3631  20.1931  28.5693  28.5693
    31.3742  37.8943  44.6172  44.6172

          k = 0.0000 0.0000 0.9706 (   790 PWs)   bands (ev):

    -3.5073   2.0662   5.9904   5.9904  15.3494  20.1835  28.5963  28.5963
    31.3910  37.8905  44.5873  44.5873

          k = 0.0000 0.0000 0.9853 (   790 PWs)   bands (ev):

    -3.4851   2.0401   5.9852   5.9852  15.3412  20.1778  28.6126  28.6126
    31.4010  37.8881  44.5692  44.5692

          k = 0.0000 0.0000 1.0000 (   790 PWs)   bands (ev):

    -3.4776   2.0314   5.9834   5.9834  15.3385  20.1759  28.6181  28.6181
    31.4044  37.8874  44.5631  44.5631

          k =-0.0147 0.0000 1.0000 (   790 PWs)   bands (ev):

    -3.4770   2.0328   5.9793   5.9803  15.3468  20.1821  28.6124  28.6171
    31.4010  37.8825  44.5454  44.5607

          k =-0.0294-0.0000 1.0000 (   790 PWs)   bands (ev):

    -3.4750   2.0373   5.9668   5.9707  15.3716  20.2008  28.5952  28.6142
    31.3909  37.8681  44.4931  44.5536

          k =-0.0441 0.0000 1.0000 (   788 PWs)   bands (ev):

    -3.4718   2.0447   5.9463   5.9549  15.4128  20.2317  28.5669  28.6093
    31.3742  37.8444  44.4088  44.5421

          k =-0.0588 0.0000 1.0000 (   788 PWs)   bands (ev):

    -3.4673   2.0550   5.9179   5.9328  15.4699  20.2749  28.5269  28.6022
    31.3509  37.8118  44.2957  44.5268

          k =-0.0735-0.0000 1.0000 (   788 PWs)   bands (ev):

    -3.4616   2.0682   5.8821   5.9047  15.5427  20.3301  28.4755  28.5927
    31.3212  37.7709  44.1582  44.5083

          k =-0.0882 0.0000 1.0000 (   788 PWs)   bands (ev):

    -3.4547   2.0844   5.8394   5.8707  15.6305  20.3971  28.4126  28.5808
    31.2852  37.7224  44.0008  44.4873

          k =-0.1029 0.0000 1.0000 (   788 PWs)   bands (ev):

    -3.4467   2.1035   5.7904   5.8311  15.7328  20.4757  28.3385  28.5661
    31.2432  37.6671  43.8278  44.4648

          k =-0.1176-0.0000 1.0000 (   780 PWs)   bands (ev):

    -3.4374   2.1256   5.7359   5.7861  15.8489  20.5656  28.2537  28.5489
    31.1962  37.6065  43.6433  44.4416

          k =-0.1324 0.0000 1.0000 (   780 PWs)   bands (ev):

    -3.4273   2.1505   5.6762   5.7359  15.9781  20.6664  28.1571  28.5277
    31.1430  37.5403  43.4504  44.4180

          k =-0.1471-0.0000 1.0000 (   776 PWs)   bands (ev):

    -3.4161   2.1782   5.6123   5.6810  16.1195  20.7778  28.0500  28.5032
    31.0849  37.4702  43.2526  44.3949

          k =-0.1618-0.0000 1.0000 (   776 PWs)   bands (ev):

    -3.4040   2.2087   5.5447   5.6213  16.2724  20.8994  27.9315  28.4738
    31.0222  37.3971  43.0521  44.3726

          k =-0.1765 0.0000 1.0000 (   776 PWs)   bands (ev):

    -3.3912   2.2421   5.4743   5.5575  16.4361  21.0308  27.8025  28.4395
    30.9556  37.3220  42.8514  44.3515

          k =-0.1912-0.0000 1.0000 (   780 PWs)   bands (ev):

    -3.3777   2.2782   5.4015   5.4897  16.6095  21.1715  27.6627  28.3991
    30.8857  37.2455  42.6523  44.3319

          k =-0.2059-0.0000 1.0000 (   782 PWs)   bands (ev):

    -3.3636   2.3171   5.3275   5.4184  16.7919  21.3212  27.5134  28.3529
    30.8132  37.1687  42.4565  44.3139

          k =-0.2206 0.0000 1.0000 (   774 PWs)   bands (ev):

    -3.3489   2.3587   5.2527   5.3441  16.9828  21.4795  27.3553  28.3002
    30.7402  37.0933  42.2658  44.2982

          k =-0.2353-0.0000 1.0000 (   774 PWs)   bands (ev):

    -3.3339   2.4029   5.1777   5.2667  17.1810  21.6457  27.1876  28.2389
    30.6660  37.0187  42.0807  44.2841

          k =-0.2500 0.0000 1.0000 (   778 PWs)   bands (ev):

    -3.3187   2.4497   5.1031   5.1867  17.3855  21.8194  27.0116  28.1687
    30.5919  36.9457  41.9023  44.2716

          k =-0.2647 0.0000 1.0000 (   778 PWs)   bands (ev):

    -3.3033   2.4991   5.0296   5.1045  17.5959  22.0002  26.8280  28.0891
    30.5196  36.8755  41.7316  44.2610

          k =-0.2794-0.0000 1.0000 (   778 PWs)   bands (ev):

    -3.2879   2.5509   4.9577   5.0204  17.8110  22.1876  26.6376  27.9993
    30.4498  36.8084  41.5694  44.2521

          k =-0.2941 0.0000 1.0000 (   778 PWs)   bands (ev):

    -3.2726   2.6052   4.8880   4.9348  18.0298  22.3811  26.4413  27.8986
    30.3833  36.7446  41.4160  44.2448

          k =-0.3088 0.0000 1.0000 (   778 PWs)   bands (ev):

    -3.2576   2.6618   4.8209   4.8480  18.2514  22.5801  26.2402  27.7867
    30.3209  36.6845  41.2721  44.2389

          k =-0.3235-0.0000 1.0000 (   776 PWs)   bands (ev):

    -3.2430   2.7206   4.7569   4.7604  18.4744  22.7843  26.0355  27.6635
    30.2632  36.6284  41.1381  44.2344

          k =-0.3382 0.0000 1.0000 (   772 PWs)   bands (ev):

    -3.2289   2.7814   4.6724   4.6966  18.6977  22.9931  25.8286  27.5288
    30.2106  36.5765  41.0142  44.2309

          k =-0.3529 0.0000 1.0000 (   772 PWs)   bands (ev):

    -3.2155   2.8442   4.5840   4.6401  18.9195  23.2057  25.6213  27.3829
    30.1626  36.5284  40.9004  44.2282

          k =-0.3676-0.0000 1.0000 (   772 PWs)   bands (ev):

    -3.2030   2.9087   4.4957   4.5878  19.1381  23.4217  25.4150  27.2264
    30.1205  36.4851  40.7972  44.2264

          k =-0.3824 0.0000 1.0000 (   772 PWs)   bands (ev):

    -3.1913   2.9746   4.4081   4.5400  19.3513  23.6406  25.2124  27.0599
    30.0837  36.4464  40.7046  44.2252

          k =-0.3971-0.0000 1.0000 (   772 PWs)   bands (ev):

    -3.1807   3.0416   4.3217   4.4972  19.5565  23.8617  25.0162  26.8842
    30.0520  36.4122  40.6229  44.2246

          k =-0.4118 0.0000 1.0000 (   778 PWs)   bands (ev):

    -3.1714   3.1091   4.2370   4.4594  19.7498  24.0842  24.8299  26.6998
    30.0248  36.3822  40.5518  44.2242

          k =-0.4265 0.0000 1.0000 (   780 PWs)   bands (ev):

    -3.1632   3.1762   4.1552   4.4270  19.9279  24.3075  24.6576  26.5084
    30.0024  36.3569  40.4918  44.2241

          k =-0.4412-0.0000 1.0000 (   780 PWs)   bands (ev):

    -3.1564   3.2416   4.0777   4.4003  20.0859  24.5045  24.5306  26.3112
    29.9846  36.3364  40.4426  44.2243

          k =-0.4559 0.0000 1.0000 (   776 PWs)   bands (ev):

    -3.1510   3.3029   4.0070   4.3795  20.2181  24.3760  24.7520  26.1098
    29.9711  36.3205  40.4045  44.2246

          k =-0.4706 0.0000 1.0000 (   772 PWs)   bands (ev):

    -3.1471   3.3559   3.9472   4.3645  20.3187  24.2783  24.9683  25.9077
    29.9621  36.3095  40.3773  44.2248

          k =-0.4853-0.0000 1.0000 (   772 PWs)   bands (ev):

    -3.1447   3.3938   3.9052   4.3555  20.3816  24.2169  25.1680  25.7164
    29.9564  36.3027  40.3609  44.2250

          k =-0.5000 0.0000 1.0000 (   772 PWs)   bands (ev):

    -3.1440   3.4079   3.8897   4.3524  20.4031  24.1960  25.2809  25.6063
    29.9545  36.3004  40.3555  44.2250

          k =-0.5104 0.0000 0.9896 (   772 PWs)   bands (ev):

    -3.1456   3.3983   3.8851   4.3722  20.3916  24.1963  25.2305  25.6686
    29.9515  36.3020  40.3524  44.2282

          k =-0.5208 0.0000 0.9792 (   772 PWs)   bands (ev):

    -3.1503   3.3742   3.8656   4.4319  20.3566  24.1971  25.1408  25.7953
    29.9424  36.3068  40.3419  44.2386

          k =-0.5312 0.0000 0.9688 (   777 PWs)   bands (ev):

    -3.1577   3.3417   3.8315   4.5242  20.2977  24.1967  25.0596  25.9405
    29.9268  36.3148  40.3220  44.2573

          k =-0.5417 0.0000 0.9583 (   777 PWs)   bands (ev):

    -3.1673   3.3049   3.7882   4.6394  20.2160  24.1925  25.0019  26.0920
    29.9056  36.3269  40.2914  44.2857

          k =-0.5521 0.0000 0.9479 (   777 PWs)   bands (ev):

    -3.1785   3.2663   3.7404   4.7692  20.1128  24.1814  24.9734  26.2453
    29.8786  36.3428  40.2486  44.3248

          k =-0.5625 0.0000 0.9375 (   777 PWs)   bands (ev):

    -3.1912   3.2273   3.6909   4.9085  19.9906  24.1618  24.9756  26.3980
    29.8463  36.3629  40.1928  44.3751

          k =-0.5729 0.0000 0.9271 (   774 PWs)   bands (ev):

    -3.2050   3.1888   3.6415   5.0540  19.8524  24.1345  25.0065  26.5485
    29.8094  36.3872  40.1235  44.4372

          k =-0.5833 0.0000 0.9167 (   771 PWs)   bands (ev):

    -3.2194   3.1514   3.5932   5.2029  19.7012  24.1017  25.0619  26.6951
    29.7687  36.4161  40.0410  44.5109

          k =-0.5938 0.0000 0.9062 (   771 PWs)   bands (ev):

    -3.2344   3.1156   3.5466   5.3533  19.5403  24.0661  25.1367  26.8359
    29.7246  36.4490  39.9454  44.5956

          k =-0.6042 0.0000 0.8958 (   773 PWs)   bands (ev):

    -3.2495   3.0814   3.5020   5.5034  19.3732  24.0299  25.2263  26.9693
    29.6786  36.4866  39.8378  44.6907

          k =-0.6146 0.0000 0.8854 (   775 PWs)   bands (ev):

    -3.2645   3.0492   3.4599   5.6520  19.2026  23.9945  25.3274  27.0937
    29.6317  36.5281  39.7195  44.7949

          k =-0.6250 0.0000 0.8750 (   777 PWs)   bands (ev):

    -3.2793   3.0191   3.4205   5.7974  19.0318  23.9609  25.4368  27.2070
    29.5858  36.5745  39.5921  44.9071

          k =-0.6354 0.0000 0.8646 (   776 PWs)   bands (ev):

    -3.2934   2.9911   3.3838   5.9384  18.8635  23.9298  25.5524  27.3074
    29.5424  36.6256  39.4572  45.0254

          k =-0.6458 0.0000 0.8542 (   776 PWs)   bands (ev):

    -3.3070   2.9654   3.3501   6.0735  18.7002  23.9012  25.6719  27.3925
    29.5032  36.6810  39.3168  45.1479

          k =-0.6562 0.0000 0.8438 (   780 PWs)   bands (ev):

    -3.3197   2.9420   3.3193   6.2012  18.5443  23.8752  25.7933  27.4605
    29.4693  36.7405  39.1726  45.2723

          k =-0.6667 0.0000 0.8333 (   780 PWs)   bands (ev):

    -3.3314   2.9210   3.2917   6.3204  18.3981  23.8521  25.9151  27.5103
    29.4427  36.8046  39.0271  45.3964

          k =-0.6771 0.0000 0.8229 (   780 PWs)   bands (ev):

    -3.3420   2.9024   3.2671   6.4296  18.2637  23.8319  26.0354  27.5413
    29.4237  36.8725  38.8824  45.5173

          k =-0.6875 0.0000 0.8125 (   782 PWs)   bands (ev):

    -3.3514   2.8862   3.2458   6.5273  18.1428  23.8143  26.1519  27.5540
    29.4119  36.9435  38.7407  45.6321

          k =-0.6979 0.0000 0.8021 (   782 PWs)   bands (ev):

    -3.3595   2.8725   3.2277   6.6125  18.0374  23.7996  26.2628  27.5506
    29.4067  37.0163  38.6052  45.7376

          k =-0.7083 0.0000 0.7917 (   788 PWs)   bands (ev):

    -3.3662   2.8611   3.2128   6.6839  17.9488  23.7874  26.3642  27.5344
    29.4055  37.0882  38.4792  45.8299

          k =-0.7188 0.0000 0.7812 (   788 PWs)   bands (ev):

    -3.3715   2.8524   3.2012   6.7407  17.8785  23.7780  26.4532  27.5105
    29.4079  37.1567  38.3679  45.9066

          k =-0.7292 0.0000 0.7708 (   788 PWs)   bands (ev):

    -3.3753   2.8461   3.1929   6.7820  17.8275  23.7713  26.5235  27.4852
    29.4114  37.2156  38.2777  45.9641

          k =-0.7396 0.0000 0.7604 (   786 PWs)   bands (ev):

    -3.3776   2.8423   3.1879   6.8071  17.7966  23.7673  26.5702  27.4659
    29.4141  37.2567  38.2176  45.9998

          k =-0.7500 0.0000 0.7500 (   786 PWs)   bands (ev):

    -3.3784   2.8411   3.1862   6.8155  17.7863  23.7660  26.5864  27.4585
    29.4151  37.2717  38.1961  46.0119

          k =-0.7396 0.0000 0.7396 (   786 PWs)   bands (ev):

    -3.3980   2.8718   3.1118   6.8826  17.9039  24.0154  26.4411  27.3823
    29.2897  37.2847  37.9093  45.9815

          k =-0.7292-0.0000 0.7292 (   790 PWs)   bands (ev):

    -3.4232   2.8492   3.1027   6.9519  18.0207  24.2572  26.2935  27.3061
    29.1731  37.2999  37.6275  45.9411

          k =-0.7188 0.0000 0.7188 (   782 PWs)   bands (ev):

    -3.4541   2.7851   3.1481   7.0233  18.1372  24.4879  26.1443  27.2317
    29.0695  37.3176  37.3511  45.8925

          k =-0.7083 0.0000 0.7083 (   786 PWs)   bands (ev):

    -3.4916   2.7128   3.2147   7.0964  18.2533  24.7010  25.9933  27.1571
    28.9826  37.0800  37.3354  45.8356

          k =-0.6979-0.0000 0.6979 (   786 PWs)   bands (ev):

    -3.5356   2.6452   3.2906   7.1716  18.3692  24.8913  25.8409  27.0837
    28.9187  36.8146  37.3541  45.7726

          k =-0.6875 0.0000 0.6875 (   792 PWs)   bands (ev):

    -3.5866   2.5865   3.3718   7.2484  18.4849  25.0521  25.6876  27.0106
    28.8835  36.5551  37.3718  45.7045

          k =-0.6771 0.0000 0.6771 (   792 PWs)   bands (ev):

    -3.6445   2.5383   3.4571   7.3271  18.6010  25.1785  25.5334  26.9380
    28.8831  36.3016  37.3901  45.6326

          k =-0.6667-0.0000 0.6667 (   792 PWs)   bands (ev):

    -3.7095   2.5015   3.5458   7.4073  18.7173  25.2664  25.3787  26.8640
    28.9221  36.0543  37.4076  45.5582

          k =-0.6562 0.0000 0.6562 (   792 PWs)   bands (ev):

    -3.7814   2.4765   3.6376   7.4890  18.8339  25.2237  25.3147  26.7873
    29.0024  35.8133  37.4240  45.4824

          k =-0.6458 0.0000 0.6458 (   790 PWs)   bands (ev):

    -3.8601   2.4633   3.7324   7.5721  18.9509  25.0686  25.3257  26.7068
    29.1228  35.5789  37.4392  45.4063

          k =-0.6354-0.0000 0.6354 (   790 PWs)   bands (ev):

    -3.9454   2.4619   3.8300   7.6565  19.0682  24.9137  25.3028  26.6217
    29.2786  35.3511  37.4520  45.3308

          k =-0.6250 0.0000 0.6250 (   790 PWs)   bands (ev):

    -4.0370   2.4722   3.9302   7.7420  19.1860  24.7591  25.2515  26.5326
    29.4640  35.1302  37.4628  45.2568

          k =-0.6146 0.0000 0.6146 (   790 PWs)   bands (ev):

    -4.1343   2.4938   4.0331   7.8285  19.3041  24.6051  25.1769  26.4401
    29.6722  34.9162  37.4713  45.1852

          k =-0.6042-0.0000 0.6042 (   788 PWs)   bands (ev):

    -4.2370   2.5266   4.1386   7.9160  19.4225  24.4519  25.0841  26.3452
    29.8969  34.7094  37.4776  45.1166

          k =-0.5938 0.0000 0.5938 (   788 PWs)   bands (ev):

    -4.3446   2.5700   4.2466   8.0042  19.5412  24.2996  24.9762  26.2487
    30.1322  34.5100  37.4814  45.0515

          k =-0.5833 0.0000 0.5833 (   796 PWs)   bands (ev):

    -4.4566   2.6234   4.3569   8.0929  19.6598  24.1481  24.8566  26.1509
    30.3729  34.3179  37.4822  44.9903

          k =-0.5729-0.0000 0.5729 (   792 PWs)   bands (ev):

    -4.5724   2.6868   4.4698   8.1823  19.7786  23.9983  24.7283  26.0538
    30.6162  34.1335  37.4817  44.9333

          k =-0.5625 0.0000 0.5625 (   792 PWs)   bands (ev):

    -4.6916   2.7595   4.5851   8.2720  19.8972  23.8498  24.5928  25.9568
    30.8571  33.9570  37.4792  44.8805

          k =-0.5521 0.0000 0.5521 (   788 PWs)   bands (ev):

    -4.8136   2.8411   4.7027   8.3622  20.0154  23.7032  24.4524  25.8603
    31.0932  33.7884  37.4753  44.8317

          k =-0.5417-0.0000 0.5417 (   788 PWs)   bands (ev):

    -4.9380   2.9310   4.8225   8.4523  20.1330  23.5580  24.3078  25.7646
    31.3216  33.6279  37.4704  44.7867

          k =-0.5312 0.0000 0.5312 (   788 PWs)   bands (ev):

    -5.0643   3.0289   4.9445   8.5424  20.2496  23.4146  24.1604  25.6698
    31.5400  33.4757  37.4650  44.7448

          k =-0.5208 0.0000 0.5208 (   788 PWs)   bands (ev):

    -5.1921   3.1344   5.0687   8.6322  20.3651  23.2732  24.0112  25.5761
    31.7464  33.3319  37.4598  44.7052

          k =-0.5104-0.0000 0.5104 (   788 PWs)   bands (ev):

    -5.3208   3.2470   5.1950   8.7217  20.4789  23.1338  23.8610  25.4837
    31.9390  33.1968  37.4553  44.6670

          k =-0.5000 0.0000 0.5000 (   792 PWs)   bands (ev):

    -5.4503   3.3662   5.3233   8.8107  20.5907  22.9964  23.7103  25.3923
    32.1154  33.0705  37.4521  44.6287

          k =-0.4896 0.0000 0.4896 (   792 PWs)   bands (ev):

    -5.5800   3.4920   5.4535   8.8991  20.7001  22.8615  23.5599  25.3025
    32.2760  32.9531  37.4507  44.5891

          k =-0.4792-0.0000 0.4792 (   792 PWs)   bands (ev):

    -5.7097   3.6238   5.5857   8.9867  20.8065  22.7289  23.4101  25.2142
    32.4192  32.8449  37.4516  44.5466

          k =-0.4688 0.0000 0.4688 (   792 PWs)   bands (ev):

    -5.8391   3.7614   5.7197   9.0734  20.9094  22.5988  23.2614  25.1276
    32.5445  32.7460  37.4550  44.4996

          k =-0.4583 0.0000 0.4583 (   792 PWs)   bands (ev):

    -5.9679   3.9045   5.8555   9.1590  21.0081  22.4711  23.1141  25.0427
    32.6518  32.6566  37.4610  44.4465

          k =-0.4479-0.0000 0.4479 (   796 PWs)   bands (ev):

    -6.0959   4.0525   5.9928   9.2433  21.1019  22.3460  22.9686  24.9596
    32.5767  32.7413  37.4695  44.3857

          k =-0.4375 0.0000 0.4375 (   796 PWs)   bands (ev):

    -6.2227   4.2057   6.1319   9.3263  21.1902  22.2236  22.8253  24.8786
    32.5067  32.8142  37.4801  44.3165

          k =-0.4271 0.0000 0.4271 (   793 PWs)   bands (ev):

    -6.3482   4.3634   6.2724   9.4080  21.2723  22.1040  22.6846  24.7999
    32.4466  32.8714  37.4927  44.2379

          k =-0.4167-0.0000 0.4167 (   793 PWs)   bands (ev):

    -6.4723   4.5256   6.4143   9.4879  21.3469  21.9870  22.5466  24.7230
    32.3966  32.9144  37.5060  44.1498

          k =-0.4062 0.0000 0.4062 (   793 PWs)   bands (ev):

    -6.5946   4.6919   6.5575   9.5662  21.4134  21.8727  22.4120  24.6484
    32.3569  32.9449  37.5196  44.0522

          k =-0.3958 0.0000 0.3958 (   793 PWs)   bands (ev):

    -6.7152   4.8621   6.7020   9.6426  21.4702  21.7612  22.2813  24.5758
    32.3275  32.9650  37.5326  43.9458

          k =-0.3854-0.0000 0.3854 (   793 PWs)   bands (ev):

    -6.8337   5.0361   6.8475   9.7170  21.5163  21.6526  22.1556  24.5052
    32.3086  32.9769  37.5446  43.8312

          k =-0.3750 0.0000 0.3750 (   793 PWs)   bands (ev):

    -6.9502   5.2135   6.9940   9.7894  21.5468  21.5489  22.0369  24.4363
    32.3004  32.9826  37.5548  43.7095

          k =-0.3646 0.0000 0.3646 (   795 PWs)   bands (ev):

    -7.0644   5.3942   7.1412   9.8596  21.4439  21.5635  21.9293  24.3687
    32.3028  32.9844  37.5623  43.5817

          k =-0.3542-0.0000 0.3542 (   791 PWs)   bands (ev):

    -7.1761   5.5780   7.2891   9.9276  21.3440  21.5521  21.8412  24.3027
    32.3162  32.9850  37.5673  43.4490

          k =-0.3438 0.0000 0.3438 (   791 PWs)   bands (ev):

    -7.2855   5.7646   7.4376   9.9933  21.2469  21.5057  21.7809  24.2365
    32.3404  32.9857  37.5688  43.3117

          k =-0.3333 0.0000 0.3333 (   791 PWs)   bands (ev):

    -7.3923   5.9538   7.5864  10.0567  21.1527  21.4288  21.7442  24.1699
    32.3756  32.9889  37.5666  43.1705

          k =-0.3229-0.0000 0.3229 (   791 PWs)   bands (ev):

    -7.4965   6.1454   7.7354  10.1176  21.0614  21.3358  21.7169  24.1022
    32.4219  32.9965  37.5607  43.0253

          k =-0.3125 0.0000 0.3125 (   801 PWs)   bands (ev):

    -7.5979   6.3387   7.8842  10.1760  20.9725  21.2367  21.6887  24.0323
    32.4793  33.0098  37.5506  42.8753

          k =-0.3021 0.0000 0.3021 (   801 PWs)   bands (ev):

    -7.6965   6.5342   8.0330  10.2320  20.8871  21.1368  21.6563  23.9597
    32.5479  33.0309  37.5374  42.7203

          k =-0.2917-0.0000 0.2917 (   801 PWs)   bands (ev):

    -7.7923   6.7314   8.1815  10.2855  20.8045  21.0378  21.6177  23.8834
    32.6276  33.0608  37.5206  42.5587

          k =-0.2812 0.0000 0.2812 (   801 PWs)   bands (ev):

    -7.8851   6.9299   8.3293  10.3365  20.7249  20.9410  21.5725  23.8028
    32.7186  33.1005  37.5006  42.3892

          k =-0.2708 0.0000 0.2708 (   799 PWs)   bands (ev):

    -7.9749   7.1293   8.4764  10.3850  20.6482  20.8468  21.5209  23.7175
    32.8207  33.1509  37.4778  42.2116

          k =-0.2604-0.0000 0.2604 (   799 PWs)   bands (ev):

    -8.0617   7.3296   8.6224  10.4310  20.5744  20.7557  21.4629  23.6266
    32.9340  33.2122  37.4525  42.0264

          k =-0.2500 0.0000 0.2500 (   799 PWs)   bands (ev):

    -8.1454   7.5303   8.7669  10.4746  20.5034  20.6679  21.3992  23.5301
    33.0584  33.2849  37.4253  41.8355

          k =-0.2396 0.0000 0.2396 (   799 PWs)   bands (ev):

    -8.2260   7.7311   8.9099  10.5157  20.4354  20.5835  21.3303  23.4281
    33.1938  33.3688  37.3968  41.6417

          k =-0.2292-0.0000 0.2292 (   799 PWs)   bands (ev):

    -8.3034   7.9315   9.0510  10.5544  20.3703  20.5027  21.2567  23.3209
    33.3404  33.4638  37.3677  41.4478

          k =-0.2188 0.0000 0.2188 (   797 PWs)   bands (ev):

    -8.3775   8.1313   9.1898  10.5908  20.3081  20.4255  21.1789  23.2090
    33.4978  33.5694  37.3388  41.2562

          k =-0.2083 0.0000 0.2083 (   797 PWs)   bands (ev):

    -8.4485   8.3298   9.3261  10.6249  20.2488  20.3521  21.0974  23.0926
    33.6662  33.6847  37.3110  41.0687

          k =-0.1979-0.0000 0.1979 (   797 PWs)   bands (ev):

    -8.5161   8.5266   9.4595  10.6567  20.1924  20.2824  21.0126  22.9727
    33.8086  33.8453  37.2853  40.8868

          k =-0.1875 0.0000 0.1875 (   797 PWs)   bands (ev):

    -8.5804   8.7212   9.5897  10.6864  20.1389  20.2165  20.9250  22.8501
    33.9398  34.0352  37.2631  40.7119

          k =-0.1771 0.0000 0.1771 (   797 PWs)   bands (ev):

    -8.6414   8.9130   9.7162  10.7139  20.0882  20.1545  20.8352  22.7260
    34.0769  34.2356  37.2457  40.5447

          k =-0.1667-0.0000 0.1667 (   793 PWs)   bands (ev):

    -8.6990   9.1013   9.8388  10.7400  20.0405  20.0964  20.7435  22.6015
    34.2177  34.4464  37.2349  40.3860

          k =-0.1562 0.0000 0.1562 (   797 PWs)   bands (ev):

    -8.7532   9.2853   9.9568  10.7634  19.9954  20.0419  20.6505  22.4774
    34.3602  34.6676  37.2325  40.2361

          k =-0.1458 0.0000 0.1458 (   797 PWs)   bands (ev):

    -8.8041   9.4646  10.0701  10.7849  19.9534  19.9915  20.5569  22.3552
    34.5016  34.8990  37.2410  40.0957

          k =-0.1354-0.0000 0.1354 (   797 PWs)   bands (ev):

    -8.8515   9.6382  10.1781  10.8046  19.9143  19.9450  20.4632  22.2359
    34.6393  35.1404  37.2626  39.9648

          k =-0.1250 0.0000 0.1250 (   797 PWs)   bands (ev):

    -8.8954   9.8051  10.2804  10.8226  19.8780  19.9024  20.3702  22.1206
    34.7702  35.3918  37.3001  39.8437

          k =-0.1146 0.0000 0.1146 (   797 PWs)   bands (ev):

    -8.9359   9.9645  10.3766  10.8388  19.8447  19.8635  20.2787  22.0106
    34.8914  35.6529  37.3557  39.7325

          k =-0.1042-0.0000 0.1042 (   791 PWs)   bands (ev):

    -8.9729  10.1154  10.4669  10.8538  19.8143  19.8285  20.1895  21.9069
    35.0003  35.9236  37.4316  39.6314

          k =-0.0938 0.0000 0.0938 (   791 PWs)   bands (ev):

    -9.0064  10.2565  10.5495  10.8668  19.7867  19.7971  20.1037  21.8102
    35.0951  36.2038  37.5290  39.5401

          k =-0.0833 0.0000 0.0833 (   791 PWs)   bands (ev):

    -9.0364  10.3870  10.6248  10.8783  19.7621  19.7694  20.0224  21.7214
    35.1749  36.4933  37.6481  39.4586

          k =-0.0729-0.0000 0.0729 (   781 PWs)   bands (ev):

    -9.0629  10.5056  10.6928  10.8888  19.7408  19.7453  19.9471  21.6415
    35.2399  36.7919  37.7877  39.3871

          k =-0.0625 0.0000 0.0625 (   777 PWs)   bands (ev):

    -9.0859  10.6117  10.7523  10.8975  19.7219  19.7248  19.8783  21.5710
    35.2913  37.0995  37.9460  39.3254

          k =-0.0521 0.0000 0.0521 (   773 PWs)   bands (ev):

    -9.1053  10.7038  10.8032  10.9048  19.7059  19.7077  19.8176  21.5104
    35.3306  37.4159  38.1203  39.2732

          k =-0.0417-0.0000 0.0417 (   773 PWs)   bands (ev):

    -9.1213  10.7804  10.8452  10.9106  19.6929  19.6937  19.7660  21.4601
    35.3596  37.7409  38.3074  39.2307

          k =-0.0312 0.0000 0.0312 (   769 PWs)   bands (ev):

    -9.1337  10.8410  10.8783  10.9153  19.6829  19.6830  19.7248  21.4207
    35.3802  38.0744  38.5042  39.1977

          k =-0.0208 0.0000 0.0208 (   769 PWs)   bands (ev):

    -9.1425  10.8849  10.9020  10.9185  19.6754  19.6757  19.6945  21.3922
    35.3939  38.4162  38.7075  39.1742

          k =-0.0104-0.0000 0.0104 (   749 PWs)   bands (ev):

    -9.1478  10.9127  10.9168  10.9209  19.6717  19.6718  19.6765  21.3755
    35.4016  38.7657  38.9141  39.1603

          k = 0.0000 0.0000 0.0000 (   749 PWs)   bands (ev):

    -9.1495  10.9216  10.9216  10.9216  19.6703  19.6703  19.6703  21.3697
    35.4041  39.0945  39.0945  39.1556

     Writing all to output data dir temp/bn.save/ :
     XML data file
     init_run     :      0.19s CPU      0.19s WALL (       1 calls)
     electrons    :      3.58s CPU      3.64s WALL (       1 calls)

     Called by init_run:
     wfcinit      :      0.00s CPU      0.00s WALL (       1 calls)
     wfcinit:atom :      0.00s CPU      0.00s WALL (      50 calls)
     wfcinit:wfcr :      0.14s CPU      0.14s WALL (      50 calls)
     potinit      :      0.00s CPU      0.00s WALL (       1 calls)
     hinit0       :      0.18s CPU      0.18s WALL (       1 calls)

     Called by electrons:
     c_bands      :      3.58s CPU      3.63s WALL (       1 calls)
     v_of_rho     :      0.00s CPU      0.00s WALL (       1 calls)
     v_h          :      0.00s CPU      0.00s WALL (       1 calls)
     v_xc         :      0.00s CPU      0.00s WALL (       1 calls)

     Called by c_bands:
     init_us_2    :      0.00s CPU      0.00s WALL (      50 calls)
     cegterg      :      3.12s CPU      3.17s WALL (     110 calls)

     Called by sum_band:

     Called by *egterg:
     cdiaghg      :      0.24s CPU      0.25s WALL (    1873 calls)
     cegterg:over :      0.13s CPU      0.13s WALL (    1823 calls)
     cegterg:upda :      0.02s CPU      0.02s WALL (    1823 calls)
     cegterg:last :      0.03s CPU      0.03s WALL (    1017 calls)
     h_psi        :      2.78s CPU      2.82s WALL (    1983 calls)
     g_psi        :      0.01s CPU      0.01s WALL (    1823 calls)

     Called by h_psi:
     h_psi:calbec :      0.07s CPU      0.07s WALL (    1983 calls)
     vloc_psi     :      2.69s CPU      2.73s WALL (    1983 calls)
                                        0.00s GPU  (    1983 calls)
     add_vuspsi   :      0.01s CPU      0.01s WALL (    1983 calls)

     General routines
     calbec       :      0.07s CPU      0.07s WALL (    1983 calls)
     fft          :      0.14s CPU      0.14s WALL (       4 calls)
     fftw         :      2.55s CPU      2.60s WALL (   25748 calls)

     Parallel routines

     PWSCF        :      3.90s CPU      3.97s WALL


   This run was terminated on:  14: 7:45  17Aug2025            

=------------------------------------------------------------------------------=
   JOB DONE.
=------------------------------------------------------------------------------=
