                                                                                      
                                       ``:oss/                                        
                           `.+s+.     .+ys--yh+     `./ss+.                           
                          -sh//yy+`   +yy   +yy    -+h+-oyy                           
                          -yh- .oyy/.-sh.   .syo-.:sy-  /yh                           
                 `.-.`    `yh+   -oyyyo.     `/syys:    oys      `.`                  
               `/+ssys+-` `sh+      `                   oys`   .:osyo`                
               -yh- ./syyooyo`                          .sys+/oyo--yh/                
               `yy+    .-:-.                             `-/+/:`  -sh-                
                /yh.                                              oys                 
          ``..---hho---------`   .---------..`      `.-----.`    -hd+---.             
       `./osmNMMMMMMMMMMMMMMMs. +NNMMMMMMMMNNmh+.   yNMMMMMNm-  oNMMMMMNmo++:`        
       +sy--/sdMMMhyyyyyyyNMMh- .oyNMMmyyyyyhNMMm+` -yMMMdyyo:` .oyyNMMNhs+syy`       
       -yy/   /MMM+.`-+/``mMMy-   `mMMh:`````.dMMN:` `MMMy-`-dhhy```mMMy:``+hs        
        -yy+` /MMMo:-mMM+`-oo/.    mMMh:     `dMMN/`  dMMm:`dMMMMy..MMMo-.+yo`        
         .sys`/MMMMNNMMMs-         mMMmyooooymMMNo:   oMMM/sMMMMMM++MMN//oh:          
          `sh+/MMMhyyMMMs- `-`     mMMMMMMMMMNmy+-`   -MMMhMMMsmMMmdMMd/yy+           
    `-/+++oyy-/MMM+.`/hh/.`mNm:`   mMMd+/////:-.`      NMMMMMd/:NMMMMMy:/yyo/:.`      
   +os+//:-..-oMMMo:--:::-/MMMo. .-mMMd+---`           hMMMMN+. oMMMMMo. `-+osyso:`   
   syo     `mNMMMMMNNNNNNNNMMMo.oNNMMMMMNNNN:`         +MMMMs:`  dMMMN/`     ``:syo   
   /yh`     :syyyyyyyyyyyyyyyy+.`+syyyyyyyyo:`         .oyys:`   .oyys:`        +yh   
   -yh-        ````````````````    `````````              ``        ``          oys   
   -+h/------------------------::::::::://////++++++++++++++++++++++///////::::/yd:   
   shdddddddddddddddddddddddddddddhhhhhhhhyyyyyssssssssssssssssyyyyyyyhhhhhhhddddh`   
                                                                                      
  S. Ponce, E. R. Margine, C. Verdi, and F. Giustino,                                 
                                                Comput. Phys. Commun. 209, 116 (2016) 
                                                                                      

     Program EPW v.5.3.1 starts on  1Sep2021 at 15:59:53 

     This program is part of the open-source Quantum ESPRESSO suite
     for quantum simulation of materials; please cite
         "P. Giannozzi et al., J. Phys.:Condens. Matter 21 395502 (2009);
         "P. Giannozzi et al., J. Phys.:Condens. Matter 29 465901 (2017);
         "P. Giannozzi et al., J. Chem. Phys. 152 154105 (2020);
          URL http://www.quantum-espresso.org", 
     in publications or presentations arising from this work. More details at
     http://www.quantum-espresso.org/quote

     Parallel version (MPI), running on     1 processors

     MPI processes distributed on     1 nodes
     Reading input from epw.transport.hole.in

     WARNING: Mismatch between temps(:) and nstemp

     WARNING: Using supplied temperature list and ignoring nstemp
                      
     ------------------------------------------------------------------------ 
                   RESTART - RESTART - RESTART - RESTART                         
     Restart is done without reading PWSCF save file.                  
     Be aware that some consistency checks are therefore not done.                  
     ------------------------------------------------------------------------ 
                      

     --                                                                         

     bravais-lattice index     =            0
     lattice parameter (a_0)   =       0.0000  a.u.
     unit-cell volume          =       0.0000 (a.u.)^3
     number of atoms/cell      =            0
     number of atomic types    =            0
     kinetic-energy cut-off    =       0.0000  Ry
     charge density cut-off    =       0.0000  Ry
     Exchange-correlation= not set
                           (  -1  -1  -1  -1  -1  -1  -1)


     celldm(1)=    0.00000  celldm(2)=    0.00000  celldm(3)=    0.00000
     celldm(4)=    0.00000  celldm(5)=    0.00000  celldm(6)=    0.00000

     crystal axes: (cart. coord. in units of a_0)
               a(1) = (  0.0000  0.0000  0.0000 )  
               a(2) = (  0.0000  0.0000  0.0000 )  
               a(3) = (  0.0000  0.0000  0.0000 )  

     reciprocal axes: (cart. coord. in units 2 pi/a_0)
               b(1) = (  0.0000  0.0000  0.0000 )  
               b(2) = (  0.0000  0.0000  0.0000 )  
               b(3) = (  0.0000  0.0000  0.0000 )  


     Atoms inside the unit cell: 

   Cartesian axes

     site n.  atom      mass           positions (a_0 units)

 
     No symmetry!

     G cutoff =    0.0000  (      0 G-vectors)     FFT grid: (  0,  0,  0)
     number of k points=    0
                       cart. coord. in units 2pi/a_0
     EPW          :      0.00s CPU      0.00s WALL

     EPW          :      0.00s CPU      0.00s WALL


     -------------------------------------------------------------------
     Using bn.ukk from disk
     -------------------------------------------------------------------

     Symmetries of Bravais lattice:  48
     Symmetries of crystal:          24

     Do not need to read .epb files; read .fmt files


     Band disentanglement is used: nbndsub =    8

     Computes the analytic long-range interaction for polar materials [lpolar]
      
     Construct the Wigner-Seitz cell using Wannier centers and atomic positions 
     Number of WS vectors for electrons      123
     Number of WS vectors for phonons       25
     Number of WS vectors for electron-phonon       25
     Maximum number of cores for efficient parallelization       50

     Reading Hamiltonian, Dynamical matrix and EP vertex in Wann rep from file


     Reading interatomic force constants

     Read Z* and epsilon
     IFC last    0.0091940
      Imposed simple ASR

     Finished reading ifcs


     Finished reading Wann rep data from file

     ===================================================================
     Memory usage:  VmHWM =       103Mb
                   VmPeak =      2613Mb
     ===================================================================
     
     Using uniform q-mesh:   15  15  15
     Size of q point mesh for interpolation:       3375
     Using uniform k-mesh:   15  15  15
     Size of k point mesh for interpolation:       6750
     Max number of k points per pool:             6750

     Fermi energy coarse grid =  10.921574 eV

     ===================================================================

     Fermi energy is read from the input file: Ef =  10.900000 eV

     ===================================================================

              ibndmin =     2  ebndmin =    10.520 eV
              ibndmax =     4  ebndmax =    10.922 eV


     Number of ep-matrix elements per pool :       182250 ~=    1.39 Mb (@ 8 bytes/ DP)

     File ./Fepmatkq1/bn.epmatkq1_0 deleted, as requested

     File ./Fsparse/sparse_0 deleted, as requested
      
     A selecq.fmt file was found but re-created because selecqread == .FALSE. 
     Number selected, total            100            274
     Number selected, total            200            691
     Number selected, total            300           2489
     Number selected, total            400           3089
     We only need to compute      495 q-points
      
     Valence band maximum    =  10.921574 eV
     Conduction band minimum =  15.373135 eV

     Temperature  200.000 K
     Mobility VB Fermi level =  11.127288 eV

     Temperature  300.000 K
     Mobility VB Fermi level =  11.232666 eV

     Temperature  400.000 K
     Mobility VB Fermi level =  11.342843 eV

     ===================================================================
     Scattering rate for IBTE
     ===================================================================

     Restart and restart_step inputs deactivated (restart point at every q-points).
     No intermediate mobility will be shown.

     Fermi Surface thickness =   0.400000 eV
     This is computed with respect to the fine Fermi level  10.900000 eV
     Only states between  10.500000 eV and  11.300000 eV will be included

     Save matrix elements larger than threshold:   0.975461057766E-24
      
     Progression iq (fine) =        100/       495
     Progression iq (fine) =        200/       495
     Progression iq (fine) =        300/       495
     Progression iq (fine) =        400/       495
      200.000     11.1273       0.100001E+16
      300.000     11.2327       0.999995E+15
      400.000     11.3428       0.999999E+15
      
     epmatkqread automatically changed to .TRUE. as all scattering have been computed.
      
     ===================================================================
     Memory usage:  VmHWM =       150Mb
                   VmPeak =      2761Mb
     ===================================================================

     Number of elements per core      43279
      
     =============================================================================================
     BTE in the self-energy relaxation time approximation (SERTA)
     =============================================================================================

     =============================================================================================
       Temp     Fermi   Hole density  Population SR                  Hole mobility 
        [K]      [eV]     [cm^-3]      [h per cell]                    [cm^2/Vs]
     =============================================================================================

      200.000  11.1273   0.10000E+16  -0.17694E-07    0.109805E+01    0.276238E-01   -0.139286E+00
                                                      0.276238E-01    0.103018E+01    0.177593E-01
                                                     -0.139286E+00    0.177593E-01    0.117709E+01
      300.000  11.2327   0.10000E+16  -0.58188E-08    0.542586E+01    0.171534E+00   -0.777762E+00
                                                      0.171534E+00    0.504034E+01    0.865862E-01
                                                     -0.777762E+00    0.865862E-01    0.587507E+01
      400.000  11.3428   0.10000E+16  -0.18245E-08    0.912514E+01    0.319946E+00   -0.137993E+01
                                                      0.319946E+00    0.843546E+01    0.142273E+00
                                                     -0.137993E+01    0.142273E+00    0.992908E+01
      
     =============================================================================================
     Start solving iterative Boltzmann Transport Equation
     =============================================================================================

     Iteration number:         1

     =============================================================================================
       Temp     Fermi   Hole density  Population SR                  Hole mobility 
        [K]      [eV]     [cm^-3]      [h per cell]                    [cm^2/Vs]
     =============================================================================================

      200.000  11.1273   0.10000E+16  -0.23991E-07    0.115913E+01    0.242461E-01   -0.142664E+00
                                                      0.242462E-01    0.109126E+01    0.211369E-01
                                                     -0.142664E+00    0.211369E-01    0.123817E+01
      300.000  11.2327   0.10000E+16  -0.78551E-08    0.580257E+01    0.154023E+00   -0.795275E+00
                                                      0.154023E+00    0.541705E+01    0.104098E+00
                                                     -0.795275E+00    0.104098E+00    0.625179E+01
      400.000  11.3428   0.10000E+16  -0.27585E-08    0.986194E+01    0.287574E+00   -0.141231E+01
                                                      0.287574E+00    0.917226E+01    0.174645E+00
                                                     -0.141231E+01    0.174645E+00    0.106659E+02

                                                      0.106659E+02    Max error
     Iteration number:         2

     =============================================================================================
       Temp     Fermi   Hole density  Population SR                  Hole mobility 
        [K]      [eV]     [cm^-3]      [h per cell]                    [cm^2/Vs]
     =============================================================================================

      200.000  11.1273   0.10000E+16  -0.38903E-07    0.116395E+01    0.237984E-01   -0.143112E+00
                                                      0.237984E-01    0.109608E+01    0.215847E-01
                                                     -0.143112E+00    0.215847E-01    0.124299E+01
      300.000  11.2327   0.10000E+16  -0.12454E-07    0.584032E+01    0.150885E+00   -0.798412E+00
                                                      0.150885E+00    0.545479E+01    0.107235E+00
                                                     -0.798412E+00    0.107235E+00    0.628953E+01
      400.000  11.3428   0.10000E+16  -0.42036E-08    0.995371E+01    0.280226E+00   -0.141966E+01
                                                      0.280226E+00    0.926403E+01    0.181993E+00
                                                     -0.141965E+01    0.181993E+00    0.107577E+02

                                                      0.917700E-01    Max error
     Iteration number:         3

     =============================================================================================
       Temp     Fermi   Hole density  Population SR                  Hole mobility 
        [K]      [eV]     [cm^-3]      [h per cell]                    [cm^2/Vs]
     =============================================================================================

      200.000  11.1273   0.10000E+16  -0.53450E-07    0.116431E+01    0.237503E-01   -0.143160E+00
                                                      0.237503E-01    0.109644E+01    0.216327E-01
                                                     -0.143160E+00    0.216328E-01    0.124334E+01
      300.000  11.2327   0.10000E+16  -0.16584E-07    0.584409E+01    0.150454E+00   -0.798843E+00
                                                      0.150454E+00    0.545857E+01    0.107666E+00
                                                     -0.798843E+00    0.107667E+00    0.629330E+01
      400.000  11.3428   0.10000E+16  -0.55454E-08    0.996525E+01    0.278966E+00   -0.142091E+01
                                                      0.278966E+00    0.927557E+01    0.183253E+00
                                                     -0.142091E+01    0.183253E+00    0.107692E+02

                                                      0.115408E-01    Max error
     Iteration number:         4

     =============================================================================================
       Temp     Fermi   Hole density  Population SR                  Hole mobility 
        [K]      [eV]     [cm^-3]      [h per cell]                    [cm^2/Vs]
     =============================================================================================

      200.000  11.1273   0.10000E+16  -0.72803E-07    0.116433E+01    0.237455E-01   -0.143165E+00
                                                      0.237455E-01    0.109647E+01    0.216376E-01
                                                     -0.143165E+00    0.216376E-01    0.124337E+01
      300.000  11.2327   0.10000E+16  -0.21917E-07    0.584448E+01    0.150396E+00   -0.798902E+00
                                                      0.150396E+00    0.545895E+01    0.107725E+00
                                                     -0.798902E+00    0.107725E+00    0.629369E+01
      400.000  11.3428   0.10000E+16  -0.71027E-08    0.996674E+01    0.278751E+00   -0.142113E+01
                                                      0.278751E+00    0.927706E+01    0.183468E+00
                                                     -0.142113E+01    0.183468E+00    0.107707E+02

                                                      0.148526E-02    Max error
     Iteration number:         5

     =============================================================================================
       Temp     Fermi   Hole density  Population SR                  Hole mobility 
        [K]      [eV]     [cm^-3]      [h per cell]                    [cm^2/Vs]
     =============================================================================================

      200.000  11.1273   0.10000E+16  -0.95439E-07    0.116434E+01    0.237450E-01   -0.143165E+00
                                                      0.237450E-01    0.109647E+01    0.216380E-01
                                                     -0.143165E+00    0.216381E-01    0.124337E+01
      300.000  11.2327   0.10000E+16  -0.27754E-07    0.584452E+01    0.150389E+00   -0.798909E+00
                                                      0.150389E+00    0.545899E+01    0.107732E+00
                                                     -0.798909E+00    0.107732E+00    0.629373E+01
      400.000  11.3428   0.10000E+16  -0.87387E-08    0.996693E+01    0.278717E+00   -0.142116E+01
                                                      0.278717E+00    0.927725E+01    0.183502E+00
                                                     -0.142116E+01    0.183502E+00    0.107709E+02

                                                      0.192999E-03    Max error
     Iteration number:         6

     =============================================================================================
       Temp     Fermi   Hole density  Population SR                  Hole mobility 
        [K]      [eV]     [cm^-3]      [h per cell]                    [cm^2/Vs]
     =============================================================================================

      200.000  11.1273   0.10000E+16  -0.12329E-06    0.116434E+01    0.237450E-01   -0.143165E+00
                                                      0.237450E-01    0.109647E+01    0.216381E-01
                                                     -0.143165E+00    0.216381E-01    0.124337E+01
      300.000  11.2327   0.10000E+16  -0.34618E-07    0.584452E+01    0.150388E+00   -0.798910E+00
                                                      0.150388E+00    0.545900E+01    0.107733E+00
                                                     -0.798910E+00    0.107733E+00    0.629373E+01
      400.000  11.3428   0.10000E+16  -0.10537E-07    0.996696E+01    0.278712E+00   -0.142117E+01
                                                      0.278712E+00    0.927728E+01    0.183507E+00
                                                     -0.142117E+01    0.183507E+00    0.107709E+02

                                                      0.252830E-04    Max error
     Iteration number:         7

     =============================================================================================
       Temp     Fermi   Hole density  Population SR                  Hole mobility 
        [K]      [eV]     [cm^-3]      [h per cell]                    [cm^2/Vs]
     =============================================================================================

      200.000  11.1273   0.10000E+16  -0.15686E-06    0.116434E+01    0.237450E-01   -0.143165E+00
                                                      0.237450E-01    0.109647E+01    0.216381E-01
                                                     -0.143165E+00    0.216381E-01    0.124337E+01
      300.000  11.2327   0.10000E+16  -0.42436E-07    0.584452E+01    0.150388E+00   -0.798910E+00
                                                      0.150388E+00    0.545900E+01    0.107733E+00
                                                     -0.798910E+00    0.107733E+00    0.629373E+01
      400.000  11.3428   0.10000E+16  -0.12474E-07    0.996696E+01    0.278711E+00   -0.142117E+01
                                                      0.278711E+00    0.927728E+01    0.183508E+00
                                                     -0.142117E+01    0.183508E+00    0.107709E+02

                                                      0.332828E-05    Max error
     Iteration number:         8

     =============================================================================================
       Temp     Fermi   Hole density  Population SR                  Hole mobility 
        [K]      [eV]     [cm^-3]      [h per cell]                    [cm^2/Vs]
     =============================================================================================

      200.000  11.1273   0.10000E+16  -0.19767E-06    0.116434E+01    0.237450E-01   -0.143165E+00
                                                      0.237450E-01    0.109647E+01    0.216381E-01
                                                     -0.143165E+00    0.216381E-01    0.124337E+01
      300.000  11.2327   0.10000E+16  -0.51466E-07    0.584452E+01    0.150388E+00   -0.798910E+00
                                                      0.150388E+00    0.545900E+01    0.107733E+00
                                                     -0.798910E+00    0.107733E+00    0.629373E+01
      400.000  11.3428   0.10000E+16  -0.14580E-07    0.996696E+01    0.278711E+00   -0.142117E+01
                                                      0.278711E+00    0.927728E+01    0.183508E+00
                                                     -0.142117E+01    0.183508E+00    0.107709E+02

                                                      0.441363E-06    Max error

     Unfolding on the coarse grid
     elphon_wrap  :      0.01s CPU      0.01s WALL (       1 calls)

     INITIALIZATION: 




     Electron-Phonon interpolation
     ephwann      :    405.35s CPU    411.87s WALL (       1 calls)
     ep-interp    :    401.19s CPU    407.68s WALL (     495 calls)

     DynW2B       :      0.06s CPU      0.07s WALL (     495 calls)
     HamW2B       :    114.83s CPU    117.32s WALL ( 3351375 calls)
     ephW2Bp      :      7.83s CPU      7.85s WALL (     495 calls)
     ephW2B       :      0.60s CPU      0.61s WALL (    5625 calls)
     print_ibte   :      2.42s CPU      3.22s WALL (     495 calls)
     vmewan2bloch :      1.27s CPU      1.29s WALL (   11250 calls)
     vmewan2bloch :      1.27s CPU      1.29s WALL (   11250 calls)


     Total program execution
     EPW          :   6m45.36s CPU   6m51.88s WALL

     ===============================================================================
     The functionality-dependent EPW.bib file was created with suggested citations. 
     Please consider citing the papers listed in EPW.bib.                           
     ===============================================================================
                                                                                    
