                                                                                      
                                       ``:oss/                                        
                           `.+s+.     .+ys--yh+     `./ss+.                           
                          -sh//yy+`   +yy   +yy    -+h+-oyy                           
                          -yh- .oyy/.-sh.   .syo-.:sy-  /yh                           
                 `.-.`    `yh+   -oyyyo.     `/syys:    oys      `.`                  
               `/+ssys+-` `sh+      `                   oys`   .:osyo`                
               -yh- ./syyooyo`                          .sys+/oyo--yh/                
               `yy+    .-:-.                             `-/+/:`  -sh-                
                /yh.                                              oys                 
          ``..---hho---------`   .---------..`      `.-----.`    -hd+---.             
       `./osmNMMMMMMMMMMMMMMMs. +NNMMMMMMMMNNmh+.   yNMMMMMNm-  oNMMMMMNmo++:`        
       +sy--/sdMMMhyyyyyyyNMMh- .oyNMMmyyyyyhNMMm+` -yMMMdyyo:` .oyyNMMNhs+syy`       
       -yy/   /MMM+.`-+/``mMMy-   `mMMh:`````.dMMN:` `MMMy-`-dhhy```mMMy:``+hs        
        -yy+` /MMMo:-mMM+`-oo/.    mMMh:     `dMMN/`  dMMm:`dMMMMy..MMMo-.+yo`        
         .sys`/MMMMNNMMMs-         mMMmyooooymMMNo:   oMMM/sMMMMMM++MMN//oh:          
          `sh+/MMMhyyMMMs- `-`     mMMMMMMMMMNmy+-`   -MMMhMMMsmMMmdMMd/yy+           
    `-/+++oyy-/MMM+.`/hh/.`mNm:`   mMMd+/////:-.`      NMMMMMd/:NMMMMMy:/yyo/:.`      
   +os+//:-..-oMMMo:--:::-/MMMo. .-mMMd+---`           hMMMMN+. oMMMMMo. `-+osyso:`   
   syo     `mNMMMMMNNNNNNNNMMMo.oNNMMMMMNNNN:`         +MMMMs:`  dMMMN/`     ``:syo   
   /yh`     :syyyyyyyyyyyyyyyy+.`+syyyyyyyyo:`         .oyys:`   .oyys:`        +yh   
   -yh-        ````````````````    `````````              ``        ``          oys   
   -+h/------------------------::::::::://////++++++++++++++++++++++///////::::/yd:   
   shdddddddddddddddddddddddddddddhhhhhhhhyyyyyssssssssssssssssyyyyyyyhhhhhhhddddh`   
                                                                                      
  S. Ponce, E. R. Margine, C. Verdi, and F. Giustino,                                 
                                                Comput. Phys. Commun. 209, 116 (2016) 
                                                                                      

     Program EPW v.5.3.1 starts on  2Nov2021 at 12:55:49 

     This program is part of the open-source Quantum ESPRESSO suite
     for quantum simulation of materials; please cite
         "P. Giannozzi et al., J. Phys.:Condens. Matter 21 395502 (2009);
         "P. Giannozzi et al., J. Phys.:Condens. Matter 29 465901 (2017);
          URL http://www.quantum-espresso.org", 
     in publications or presentations arising from this work. More details at
     http://www.quantum-espresso.org/quote

     Parallel version (MPI), running on     1 processors

     MPI processes distributed on     1 nodes
     Reading input from epw.selfen.in

     Reading supplied temperature list.
                      
     ------------------------------------------------------------------------ 
                   RESTART - RESTART - RESTART - RESTART                         
     Restart is done without reading PWSCF save file.                  
     Be aware that some consistency checks are therefore not done.                  
     ------------------------------------------------------------------------ 
                      

     --                                                                         

     bravais-lattice index     =            0
     lattice parameter (a_0)   =       0.0000  a.u.
     unit-cell volume          =       0.0000 (a.u.)^3
     number of atoms/cell      =            0
     number of atomic types    =            0
     kinetic-energy cut-off    =       0.0000  Ry
     charge density cut-off    =       0.0000  Ry
     Exchange-correlation= not set
                           (  -1  -1  -1  -1  -1  -1  -1)


     celldm(1)=    0.00000  celldm(2)=    0.00000  celldm(3)=    0.00000
     celldm(4)=    0.00000  celldm(5)=    0.00000  celldm(6)=    0.00000

     crystal axes: (cart. coord. in units of a_0)
               a(1) = (  0.0000  0.0000  0.0000 )  
               a(2) = (  0.0000  0.0000  0.0000 )  
               a(3) = (  0.0000  0.0000  0.0000 )  

     reciprocal axes: (cart. coord. in units 2 pi/a_0)
               b(1) = (  0.0000  0.0000  0.0000 )  
               b(2) = (  0.0000  0.0000  0.0000 )  
               b(3) = (  0.0000  0.0000  0.0000 )  


     Atoms inside the unit cell: 

   Cartesian axes

     site n.  atom      mass           positions (a_0 units)

 
     No symmetry!

     G cutoff =    0.0000  (      0 G-vectors)     FFT grid: (  0,  0,  0)
     number of k points=    0
                       cart. coord. in units 2pi/a_0
     EPW          :      0.00s CPU      0.00s WALL

     EPW          :      0.00s CPU      0.00s WALL


     -------------------------------------------------------------------
     Using bn.ukk from disk
     -------------------------------------------------------------------

     Symmetries of Bravais lattice:  48
     Symmetries of crystal:          24

     Do not need to read .epb files; read .fmt files


     Band disentanglement is used: nbndsub =    8

     Computes the analytic long-range interaction for polar materials [lpolar]
      
     Construct the Wigner-Seitz cell using Wannier centers and atomic positions 
     Number of WS vectors for electrons      123
     Number of WS vectors for phonons       25
     Number of WS vectors for electron-phonon       25
     Maximum number of cores for efficient parallelization       50

     Reading Hamiltonian, Dynamical matrix and EP vertex in Wann rep from file


     Reading interatomic force constants

     Read Z* and epsilon
     IFC last    0.0091940
      Imposed simple ASR

     Finished reading ifcs


     Finished reading Wann rep data from file

     ===================================================================
     Memory usage:  VmHWM =        61Mb
                   VmPeak =      2611Mb
     ===================================================================
     
     Using uniform q-mesh:    5   5   5
     Size of q point mesh for interpolation:        125
     Using uniform k-mesh:    5   5   5
     Size of k point mesh for interpolation:        250
     Max number of k points per pool:              250

     Fermi energy coarse grid =  10.921574 eV

     ===================================================================

     Fermi energy is read from the input file: Ef =  25.000000 eV

     ===================================================================

              ibndmin =     2  ebndmin =     5.856 eV
              ibndmax =     8  ebndmax =    27.676 eV


     Number of ep-matrix elements per pool :        36750 ~=  287.11 Kb (@ 8 bytes/ DP)
      
     A selecq.fmt file was found but re-created because selecqread == .FALSE. 
     Number selected, total            100            100
     We only need to compute      125 q-points
      

     ===================================================================
     Phonon (Imaginary) Self-Energy in the Migdal Approximation
     ===================================================================


     Fermi Surface thickness =  20.000000 eV

     Golden Rule strictly enforced with T =   0.017235 eV
     Gaussian Broadening:   0.500000 eV, ngauss=   1
     DOS =  0.444971 states/spin/eV/Unit Cell at Ef= 25.000000 eV

     ismear =     1 iq =       1 coord.:   0.00000  0.00000  0.00000 wt:   0.00800 Temp:  200.000K
     -------------------------------------------------------------------
     lambda___(   1 )=       0.000000   gamma___=       0.000000 meV   omega=      0.0000 meV
     lambda_tr(   1 )=       0.000000   gamma_tr=       0.000000 meV   omega=      0.0000 meV
     lambda___(   2 )=       0.000000   gamma___=       0.000000 meV   omega=      0.0000 meV
     lambda_tr(   2 )=       0.000000   gamma_tr=       0.000000 meV   omega=      0.0000 meV
     lambda___(   3 )=       0.000000   gamma___=       0.000000 meV   omega=      0.0000 meV
     lambda_tr(   3 )=       0.000000   gamma_tr=       0.000000 meV   omega=      0.0000 meV
     lambda___(   4 )=       0.011631   gamma___=       0.267012 meV   omega=    128.1473 meV
     lambda_tr(   4 )=       0.016308   gamma_tr=       0.374376 meV   omega=    128.1473 meV
     lambda___(   5 )=       0.011631   gamma___=       0.267012 meV   omega=    128.1473 meV
     lambda_tr(   5 )=       0.016308   gamma_tr=       0.374376 meV   omega=    128.1473 meV
     lambda___(   6 )=       0.011631   gamma___=       0.267012 meV   omega=    128.1473 meV
     lambda_tr(   6 )=       0.016308   gamma_tr=       0.374376 meV   omega=    128.1473 meV
     lambda___( tot )=       0.034894
     lambda_tr( tot )=       0.048925
     -------------------------------------------------------------------


     Number of (k,k+q) pairs on the Fermi surface:      125 out of      125


     ===================================================================
     Phonon (Imaginary) Self-Energy in the Migdal Approximation
     ===================================================================


     Fermi Surface thickness =  20.000000 eV

     Golden Rule strictly enforced with T =   0.025852 eV
     Gaussian Broadening:   0.500000 eV, ngauss=   1
     DOS =  0.444971 states/spin/eV/Unit Cell at Ef= 25.000000 eV

     ismear =     1 iq =       1 coord.:   0.00000  0.00000  0.00000 wt:   0.00800 Temp:  300.000K
     -------------------------------------------------------------------
     lambda___(   1 )=       0.000000   gamma___=       0.000000 meV   omega=      0.0000 meV
     lambda_tr(   1 )=       0.000000   gamma_tr=       0.000000 meV   omega=      0.0000 meV
     lambda___(   2 )=       0.000000   gamma___=       0.000000 meV   omega=      0.0000 meV
     lambda_tr(   2 )=       0.000000   gamma_tr=       0.000000 meV   omega=      0.0000 meV
     lambda___(   3 )=       0.000000   gamma___=       0.000000 meV   omega=      0.0000 meV
     lambda_tr(   3 )=       0.000000   gamma_tr=       0.000000 meV   omega=      0.0000 meV
     lambda___(   4 )=       0.011707   gamma___=       0.268740 meV   omega=    128.1473 meV
     lambda_tr(   4 )=       0.016391   gamma_tr=       0.376274 meV   omega=    128.1473 meV
     lambda___(   5 )=       0.011707   gamma___=       0.268740 meV   omega=    128.1473 meV
     lambda_tr(   5 )=       0.016391   gamma_tr=       0.376274 meV   omega=    128.1473 meV
     lambda___(   6 )=       0.011707   gamma___=       0.268740 meV   omega=    128.1473 meV
     lambda_tr(   6 )=       0.016391   gamma_tr=       0.376274 meV   omega=    128.1473 meV
     lambda___( tot )=       0.035120
     lambda_tr( tot )=       0.049173
     -------------------------------------------------------------------


     Number of (k,k+q) pairs on the Fermi surface:      125 out of      125


     ===================================================================
     Electron (Imaginary) Self-Energy in the Migdal Approximation
     ===================================================================


     Fermi Surface thickness =  20.000000 eV

     Golden Rule strictly enforced with T =   0.017235 eV
     Gaussian Broadening:   0.500000 eV, ngauss=   1
 

     ===================================================================
     Electron (Imaginary) Self-Energy in the Migdal Approximation
     ===================================================================


     Fermi Surface thickness =  20.000000 eV

     Golden Rule strictly enforced with T =   0.025852 eV
     Gaussian Broadening:   0.500000 eV, ngauss=   1
 

     ismear =     1 iq =       2 coord.:   0.00000  0.00000  0.20000 wt:   0.00800 Temp:  200.000K
     -------------------------------------------------------------------
     lambda___(   1 )=       0.036299   gamma___=       0.058480 meV   omega=     33.9483 meV
     lambda_tr(   1 )=       0.151328   gamma_tr=       0.243801 meV   omega=     33.9483 meV
     lambda___(   2 )=       0.036299   gamma___=       0.058480 meV   omega=     33.9483 meV
     lambda_tr(   2 )=       0.151328   gamma_tr=       0.243801 meV   omega=     33.9483 meV
     lambda___(   3 )=       0.377925   gamma___=       2.080334 meV   omega=     62.7513 meV
     lambda_tr(   3 )=       0.367632   gamma_tr=       2.023673 meV   omega=     62.7513 meV
     lambda___(   4 )=       0.207759   gamma___=       4.611961 meV   omega=    126.0150 meV
     lambda_tr(   4 )=       0.208333   gamma_tr=       4.624714 meV   omega=    126.0150 meV
     lambda___(   5 )=       0.207759   gamma___=       4.611961 meV   omega=    126.0150 meV
     lambda_tr(   5 )=       0.208333   gamma_tr=       4.624714 meV   omega=    126.0150 meV
     lambda___(   6 )=       0.816100   gamma___=      27.198662 meV   omega=    154.4049 meV
     lambda_tr(   6 )=       0.812649   gamma_tr=      27.083622 meV   omega=    154.4049 meV
     lambda___( tot )=       1.682141
     lambda_tr( tot )=       1.899603
     -------------------------------------------------------------------


     Number of (k,k+q) pairs on the Fermi surface:      125 out of      125


     ismear =     1 iq =       2 coord.:   0.00000  0.00000  0.20000 wt:   0.00800 Temp:  300.000K
     -------------------------------------------------------------------
     lambda___(   1 )=       0.081851   gamma___=       0.131868 meV   omega=     33.9483 meV
     lambda_tr(   1 )=       0.225216   gamma_tr=       0.362842 meV   omega=     33.9483 meV
     lambda___(   2 )=       0.081851   gamma___=       0.131868 meV   omega=     33.9483 meV
     lambda_tr(   2 )=       0.225216   gamma_tr=       0.362842 meV   omega=     33.9483 meV
     lambda___(   3 )=       0.382736   gamma___=       2.106817 meV   omega=     62.7513 meV
     lambda_tr(   3 )=       0.383750   gamma_tr=       2.112396 meV   omega=     62.7513 meV
     lambda___(   4 )=       0.230848   gamma___=       5.124512 meV   omega=    126.0150 meV
     lambda_tr(   4 )=       0.234765   gamma_tr=       5.211465 meV   omega=    126.0150 meV
     lambda___(   5 )=       0.230848   gamma___=       5.124512 meV   omega=    126.0150 meV
     lambda_tr(   5 )=       0.234765   gamma_tr=       5.211465 meV   omega=    126.0150 meV
     lambda___(   6 )=       0.819322   gamma___=      27.306036 meV   omega=    154.4049 meV
     lambda_tr(   6 )=       0.815154   gamma_tr=      27.167124 meV   omega=    154.4049 meV
     lambda___( tot )=       1.827456
     lambda_tr( tot )=       2.118867
     -------------------------------------------------------------------


     Number of (k,k+q) pairs on the Fermi surface:      125 out of      125


     ismear =     1 iq =       3 coord.:   0.00000  0.00000  0.40000 wt:   0.00800 Temp:  200.000K
     -------------------------------------------------------------------
     lambda___(   1 )=       0.255651   gamma___=       1.155874 meV   omega=     56.8710 meV
     lambda_tr(   1 )=       1.150046   gamma_tr=       5.199709 meV   omega=     56.8710 meV
     lambda___(   2 )=       0.255651   gamma___=       1.155874 meV   omega=     56.8710 meV
     lambda_tr(   2 )=       1.150046   gamma_tr=       5.199709 meV   omega=     56.8710 meV
     lambda___(   3 )=       0.217505   gamma___=       3.604767 meV   omega=    108.8838 meV
     lambda_tr(   3 )=       0.653853   gamma_tr=      10.836481 meV   omega=    108.8838 meV
     lambda___(   4 )=       0.297826   gamma___=       6.155006 meV   omega=    121.5883 meV
     lambda_tr(   4 )=       0.766396   gamma_tr=      15.838662 meV   omega=    121.5883 meV
     lambda___(   5 )=       0.297826   gamma___=       6.155006 meV   omega=    121.5883 meV
     lambda_tr(   5 )=       0.766396   gamma_tr=      15.838662 meV   omega=    121.5883 meV
     lambda___(   6 )=       0.215955   gamma___=       6.309333 meV   omega=    144.5670 meV
     lambda_tr(   6 )=       0.393836   gamma_tr=      11.506288 meV   omega=    144.5670 meV
     lambda___( tot )=       1.540413
     lambda_tr( tot )=       4.880571
     -------------------------------------------------------------------


     Number of (k,k+q) pairs on the Fermi surface:      125 out of      125


     ismear =     1 iq =       3 coord.:   0.00000  0.00000  0.40000 wt:   0.00800 Temp:  300.000K
     -------------------------------------------------------------------
     lambda___(   1 )=       0.258425   gamma___=       1.168420 meV   omega=     56.8710 meV
     lambda_tr(   1 )=       1.153032   gamma_tr=       5.213210 meV   omega=     56.8710 meV
     lambda___(   2 )=       0.258425   gamma___=       1.168420 meV   omega=     56.8710 meV
     lambda_tr(   2 )=       1.153032   gamma_tr=       5.213210 meV   omega=     56.8710 meV
     lambda___(   3 )=       0.219670   gamma___=       3.640656 meV   omega=    108.8838 meV
     lambda_tr(   3 )=       0.658343   gamma_tr=      10.910900 meV   omega=    108.8838 meV
     lambda___(   4 )=       0.317229   gamma___=       6.555997 meV   omega=    121.5883 meV
     lambda_tr(   4 )=       0.785483   gamma_tr=      16.233127 meV   omega=    121.5883 meV
     lambda___(   5 )=       0.317229   gamma___=       6.555997 meV   omega=    121.5883 meV
     lambda_tr(   5 )=       0.785483   gamma_tr=      16.233127 meV   omega=    121.5883 meV
     lambda___(   6 )=       0.220118   gamma___=       6.430967 meV   omega=    144.5670 meV
     lambda_tr(   6 )=       0.397594   gamma_tr=      11.616097 meV   omega=    144.5670 meV
     lambda___( tot )=       1.591098
     lambda_tr( tot )=       4.932967
     -------------------------------------------------------------------


     Number of (k,k+q) pairs on the Fermi surface:      125 out of      125


     ismear =     1 iq =       4 coord.:   0.00000  0.00000  0.60000 wt:   0.00800 Temp:  200.000K
     -------------------------------------------------------------------
     lambda___(   1 )=       0.255651   gamma___=       1.155875 meV   omega=     56.8710 meV
     lambda_tr(   1 )=       1.150046   gamma_tr=       5.199708 meV   omega=     56.8710 meV
     lambda___(   2 )=       0.255651   gamma___=       1.155875 meV   omega=     56.8710 meV
     lambda_tr(   2 )=       1.150046   gamma_tr=       5.199708 meV   omega=     56.8710 meV
     lambda___(   3 )=       0.217505   gamma___=       3.604768 meV   omega=    108.8838 meV
     lambda_tr(   3 )=       0.653853   gamma_tr=      10.836480 meV   omega=    108.8838 meV
     lambda___(   4 )=       0.297826   gamma___=       6.155008 meV   omega=    121.5883 meV
     lambda_tr(   4 )=       0.766396   gamma_tr=      15.838661 meV   omega=    121.5883 meV
     lambda___(   5 )=       0.297826   gamma___=       6.155008 meV   omega=    121.5883 meV
     lambda_tr(   5 )=       0.766396   gamma_tr=      15.838661 meV   omega=    121.5883 meV
     lambda___(   6 )=       0.215955   gamma___=       6.309335 meV   omega=    144.5670 meV
     lambda_tr(   6 )=       0.393836   gamma_tr=      11.506288 meV   omega=    144.5670 meV
     lambda___( tot )=       1.540414
     lambda_tr( tot )=       4.880571
     -------------------------------------------------------------------


     Number of (k,k+q) pairs on the Fermi surface:      125 out of      125


     ismear =     1 iq =       4 coord.:   0.00000  0.00000  0.60000 wt:   0.00800 Temp:  300.000K
     -------------------------------------------------------------------
     lambda___(   1 )=       0.258425   gamma___=       1.168420 meV   omega=     56.8710 meV
     lambda_tr(   1 )=       1.153032   gamma_tr=       5.213210 meV   omega=     56.8710 meV
     lambda___(   2 )=       0.258425   gamma___=       1.168420 meV   omega=     56.8710 meV
     lambda_tr(   2 )=       1.153032   gamma_tr=       5.213210 meV   omega=     56.8710 meV
     lambda___(   3 )=       0.219670   gamma___=       3.640657 meV   omega=    108.8838 meV
     lambda_tr(   3 )=       0.658343   gamma_tr=      10.910899 meV   omega=    108.8838 meV
     lambda___(   4 )=       0.317229   gamma___=       6.555998 meV   omega=    121.5883 meV
     lambda_tr(   4 )=       0.785483   gamma_tr=      16.233125 meV   omega=    121.5883 meV
     lambda___(   5 )=       0.317229   gamma___=       6.555998 meV   omega=    121.5883 meV
     lambda_tr(   5 )=       0.785483   gamma_tr=      16.233125 meV   omega=    121.5883 meV
     lambda___(   6 )=       0.220118   gamma___=       6.430969 meV   omega=    144.5670 meV
     lambda_tr(   6 )=       0.397594   gamma_tr=      11.616097 meV   omega=    144.5670 meV
     lambda___( tot )=       1.591098
     lambda_tr( tot )=       4.932967
     -------------------------------------------------------------------


     Number of (k,k+q) pairs on the Fermi surface:      125 out of      125


     ismear =     1 iq =       5 coord.:   0.00000  0.00000  0.80000 wt:   0.00800 Temp:  200.000K
     -------------------------------------------------------------------
     lambda___(   1 )=       0.036299   gamma___=       0.058481 meV   omega=     33.9483 meV
     lambda_tr(   1 )=       0.151328   gamma_tr=       0.243801 meV   omega=     33.9483 meV
     lambda___(   2 )=       0.036299   gamma___=       0.058481 meV   omega=     33.9483 meV
     lambda_tr(   2 )=       0.151328   gamma_tr=       0.243801 meV   omega=     33.9483 meV
     lambda___(   3 )=       0.377925   gamma___=       2.080336 meV   omega=     62.7513 meV
     lambda_tr(   3 )=       0.367631   gamma_tr=       2.023672 meV   omega=     62.7513 meV
     lambda___(   4 )=       0.207759   gamma___=       4.611961 meV   omega=    126.0150 meV
     lambda_tr(   4 )=       0.208333   gamma_tr=       4.624714 meV   omega=    126.0150 meV
     lambda___(   5 )=       0.207759   gamma___=       4.611961 meV   omega=    126.0150 meV
     lambda_tr(   5 )=       0.208333   gamma_tr=       4.624714 meV   omega=    126.0150 meV
     lambda___(   6 )=       0.816101   gamma___=      27.198667 meV   omega=    154.4049 meV
     lambda_tr(   6 )=       0.812649   gamma_tr=      27.083620 meV   omega=    154.4049 meV
     lambda___( tot )=       1.682142
     lambda_tr( tot )=       1.899602
     -------------------------------------------------------------------


     Number of (k,k+q) pairs on the Fermi surface:      125 out of      125


     ismear =     1 iq =       5 coord.:   0.00000  0.00000  0.80000 wt:   0.00800 Temp:  300.000K
     -------------------------------------------------------------------
     lambda___(   1 )=       0.081851   gamma___=       0.131868 meV   omega=     33.9483 meV
     lambda_tr(   1 )=       0.225216   gamma_tr=       0.362841 meV   omega=     33.9483 meV
     lambda___(   2 )=       0.081851   gamma___=       0.131868 meV   omega=     33.9483 meV
     lambda_tr(   2 )=       0.225216   gamma_tr=       0.362841 meV   omega=     33.9483 meV
     lambda___(   3 )=       0.382736   gamma___=       2.106818 meV   omega=     62.7513 meV
     lambda_tr(   3 )=       0.383749   gamma_tr=       2.112395 meV   omega=     62.7513 meV
     lambda___(   4 )=       0.230848   gamma___=       5.124513 meV   omega=    126.0150 meV
     lambda_tr(   4 )=       0.234765   gamma_tr=       5.211465 meV   omega=    126.0150 meV
     lambda___(   5 )=       0.230848   gamma___=       5.124513 meV   omega=    126.0150 meV
     lambda_tr(   5 )=       0.234765   gamma_tr=       5.211465 meV   omega=    126.0150 meV
     lambda___(   6 )=       0.819322   gamma___=      27.306040 meV   omega=    154.4049 meV
     lambda_tr(   6 )=       0.815154   gamma_tr=      27.167122 meV   omega=    154.4049 meV
     lambda___( tot )=       1.827457
     lambda_tr( tot )=       2.118866
     -------------------------------------------------------------------


     Number of (k,k+q) pairs on the Fermi surface:      125 out of      125


     ismear =     1 iq =       6 coord.:   0.00000  0.20000  0.00000 wt:   0.00800 Temp:  200.000K
     -------------------------------------------------------------------
     lambda___(   1 )=       0.036299   gamma___=       0.058481 meV   omega=     33.9483 meV
     lambda_tr(   1 )=       0.151328   gamma_tr=       0.243801 meV   omega=     33.9483 meV
     lambda___(   2 )=       0.036299   gamma___=       0.058481 meV   omega=     33.9483 meV
     lambda_tr(   2 )=       0.151328   gamma_tr=       0.243801 meV   omega=     33.9483 meV
     lambda___(   3 )=       0.377925   gamma___=       2.080335 meV   omega=     62.7513 meV
     lambda_tr(   3 )=       0.367631   gamma_tr=       2.023672 meV   omega=     62.7513 meV
     lambda___(   4 )=       0.207759   gamma___=       4.611962 meV   omega=    126.0150 meV
     lambda_tr(   4 )=       0.208333   gamma_tr=       4.624714 meV   omega=    126.0150 meV
     lambda___(   5 )=       0.207759   gamma___=       4.611962 meV   omega=    126.0150 meV
     lambda_tr(   5 )=       0.208333   gamma_tr=       4.624714 meV   omega=    126.0150 meV
     lambda___(   6 )=       0.816101   gamma___=      27.198667 meV   omega=    154.4049 meV
     lambda_tr(   6 )=       0.812649   gamma_tr=      27.083622 meV   omega=    154.4049 meV
     lambda___( tot )=       1.682142
     lambda_tr( tot )=       1.899602
     -------------------------------------------------------------------


     Number of (k,k+q) pairs on the Fermi surface:      125 out of      125


     ismear =     1 iq =       6 coord.:   0.00000  0.20000  0.00000 wt:   0.00800 Temp:  300.000K
     -------------------------------------------------------------------
     lambda___(   1 )=       0.081851   gamma___=       0.131868 meV   omega=     33.9483 meV
     lambda_tr(   1 )=       0.225216   gamma_tr=       0.362841 meV   omega=     33.9483 meV
     lambda___(   2 )=       0.081851   gamma___=       0.131868 meV   omega=     33.9483 meV
     lambda_tr(   2 )=       0.225216   gamma_tr=       0.362841 meV   omega=     33.9483 meV
     lambda___(   3 )=       0.382736   gamma___=       2.106818 meV   omega=     62.7513 meV
     lambda_tr(   3 )=       0.383749   gamma_tr=       2.112395 meV   omega=     62.7513 meV
     lambda___(   4 )=       0.230848   gamma___=       5.124513 meV   omega=    126.0150 meV
     lambda_tr(   4 )=       0.234765   gamma_tr=       5.211465 meV   omega=    126.0150 meV
     lambda___(   5 )=       0.230848   gamma___=       5.124513 meV   omega=    126.0150 meV
     lambda_tr(   5 )=       0.234765   gamma_tr=       5.211465 meV   omega=    126.0150 meV
     lambda___(   6 )=       0.819322   gamma___=      27.306040 meV   omega=    154.4049 meV
     lambda_tr(   6 )=       0.815154   gamma_tr=      27.167123 meV   omega=    154.4049 meV
     lambda___( tot )=       1.827456
     lambda_tr( tot )=       2.118866
     -------------------------------------------------------------------


     Number of (k,k+q) pairs on the Fermi surface:      125 out of      125


     ismear =     1 iq =       7 coord.:   0.00000  0.20000  0.20000 wt:   0.00800 Temp:  200.000K
     -------------------------------------------------------------------
     lambda___(   1 )=       0.286294   gamma___=       0.817795 meV   omega=     45.2038 meV
     lambda_tr(   1 )=       0.508464   gamma_tr=       1.452420 meV   omega=     45.2038 meV
     lambda___(   2 )=       0.286294   gamma___=       0.817795 meV   omega=     45.2038 meV
     lambda_tr(   2 )=       0.508464   gamma_tr=       1.452420 meV   omega=     45.2038 meV
     lambda___(   3 )=       0.058739   gamma___=       0.350965 meV   omega=     65.3775 meV
     lambda_tr(   3 )=       0.398864   gamma_tr=       2.383212 meV   omega=     65.3775 meV
     lambda___(   4 )=       0.067419   gamma___=       1.457266 meV   omega=    124.3478 meV
     lambda_tr(   4 )=       0.178583   gamma_tr=       3.860100 meV   omega=    124.3478 meV
     lambda___(   5 )=       0.067419   gamma___=       1.457266 meV   omega=    124.3478 meV
     lambda_tr(   5 )=       0.178583   gamma_tr=       3.860100 meV   omega=    124.3478 meV
     lambda___(   6 )=       0.398224   gamma___=      13.406052 meV   omega=    155.1836 meV
     lambda_tr(   6 )=       0.469338   gamma_tr=      15.800060 meV   omega=    155.1836 meV
     lambda___( tot )=       1.164389
     lambda_tr( tot )=       2.242296
     -------------------------------------------------------------------


     Number of (k,k+q) pairs on the Fermi surface:      125 out of      125


     ismear =     1 iq =       7 coord.:   0.00000  0.20000  0.20000 wt:   0.00800 Temp:  300.000K
     -------------------------------------------------------------------
     lambda___(   1 )=       0.283878   gamma___=       0.810893 meV   omega=     45.2038 meV
     lambda_tr(   1 )=       0.506221   gamma_tr=       1.446014 meV   omega=     45.2038 meV
     lambda___(   2 )=       0.283878   gamma___=       0.810893 meV   omega=     45.2038 meV
     lambda_tr(   2 )=       0.506221   gamma_tr=       1.446014 meV   omega=     45.2038 meV
     lambda___(   3 )=       0.067498   gamma___=       0.403300 meV   omega=     65.3775 meV
     lambda_tr(   3 )=       0.396185   gamma_tr=       2.367204 meV   omega=     65.3775 meV
     lambda___(   4 )=       0.070169   gamma___=       1.516707 meV   omega=    124.3478 meV
     lambda_tr(   4 )=       0.179582   gamma_tr=       3.881679 meV   omega=    124.3478 meV
     lambda___(   5 )=       0.070169   gamma___=       1.516707 meV   omega=    124.3478 meV
     lambda_tr(   5 )=       0.179582   gamma_tr=       3.881679 meV   omega=    124.3478 meV
     lambda___(   6 )=       0.397458   gamma___=      13.380250 meV   omega=    155.1836 meV
     lambda_tr(   6 )=       0.472537   gamma_tr=      15.907755 meV   omega=    155.1836 meV
     lambda___( tot )=       1.173048
     lambda_tr( tot )=       2.240327
     -------------------------------------------------------------------


     Number of (k,k+q) pairs on the Fermi surface:      125 out of      125


     ismear =     1 iq =       8 coord.:   0.00000  0.20000  0.40000 wt:   0.00800 Temp:  200.000K
     -------------------------------------------------------------------
     lambda___(   1 )=       0.103627   gamma___=       0.607078 meV   omega=     64.7358 meV
     lambda_tr(   1 )=      -0.406089   gamma_tr=      -2.378992 meV   omega=     64.7358 meV
     lambda___(   2 )=       0.140976   gamma___=       0.959915 meV   omega=     69.7916 meV
     lambda_tr(   2 )=      -0.085054   gamma_tr=      -0.579141 meV   omega=     69.7916 meV
     lambda___(   3 )=       0.220911   gamma___=       3.033440 meV   omega=     99.1101 meV
     lambda_tr(   3 )=       0.061309   gamma_tr=       0.841862 meV   omega=     99.1101 meV
     lambda___(   4 )=       0.182627   gamma___=       3.653298 meV   omega=    119.6241 meV
     lambda_tr(   4 )=      -0.069097   gamma_tr=      -1.382217 meV   omega=    119.6241 meV
     lambda___(   5 )=       0.164544   gamma___=       3.447310 meV   omega=    122.4218 meV
     lambda_tr(   5 )=       0.138745   gamma_tr=       2.906806 meV   omega=    122.4218 meV
     lambda___(   6 )=       0.345049   gamma___=      10.322640 meV   omega=    146.2898 meV
     lambda_tr(   6 )=       0.145563   gamma_tr=       4.354730 meV   omega=    146.2898 meV
     lambda___( tot )=       1.157735
     lambda_tr( tot )=      -0.214623
     -------------------------------------------------------------------


     Number of (k,k+q) pairs on the Fermi surface:      125 out of      125


     ismear =     1 iq =       8 coord.:   0.00000  0.20000  0.40000 wt:   0.00800 Temp:  300.000K
     -------------------------------------------------------------------
     lambda___(   1 )=       0.131892   gamma___=       0.772663 meV   omega=     64.7358 meV
     lambda_tr(   1 )=      -0.354708   gamma_tr=      -2.077982 meV   omega=     64.7358 meV
     lambda___(   2 )=       0.142038   gamma___=       0.967145 meV   omega=     69.7916 meV
     lambda_tr(   2 )=      -0.068562   gamma_tr=      -0.466845 meV   omega=     69.7916 meV
     lambda___(   3 )=       0.223189   gamma___=       3.064718 meV   omega=     99.1101 meV
     lambda_tr(   3 )=       0.067298   gamma_tr=       0.924107 meV   omega=     99.1101 meV
     lambda___(   4 )=       0.201278   gamma___=       4.026396 meV   omega=    119.6241 meV
     lambda_tr(   4 )=      -0.045491   gamma_tr=      -0.910014 meV   omega=    119.6241 meV
     lambda___(   5 )=       0.178568   gamma___=       3.741125 meV   omega=    122.4218 meV
     lambda_tr(   5 )=       0.157327   gamma_tr=       3.296107 meV   omega=    122.4218 meV
     lambda___(   6 )=       0.346691   gamma___=      10.371766 meV   omega=    146.2898 meV
     lambda_tr(   6 )=       0.148771   gamma_tr=       4.450702 meV   omega=    146.2898 meV
     lambda___( tot )=       1.223657
     lambda_tr( tot )=      -0.095365
     -------------------------------------------------------------------


     Number of (k,k+q) pairs on the Fermi surface:      125 out of      125


     ismear =     1 iq =       9 coord.:   0.00000  0.20000  0.60000 wt:   0.00800 Temp:  200.000K
     -------------------------------------------------------------------
     lambda___(   1 )=       0.228524   gamma___=       1.474820 meV   omega=     67.9458 meV
     lambda_tr(   1 )=      -0.024657   gamma_tr=      -0.159129 meV   omega=     67.9458 meV
     lambda___(   2 )=       0.276393   gamma___=       2.674808 meV   omega=     83.2036 meV
     lambda_tr(   2 )=       0.489697   gamma_tr=       4.739071 meV   omega=     83.2036 meV
     lambda___(   3 )=       0.533947   gamma___=       9.837458 meV   omega=    114.8026 meV
     lambda_tr(   3 )=       0.514598   gamma_tr=       9.480969 meV   omega=    114.8026 meV
     lambda___(   4 )=       0.248089   gamma___=       4.862095 meV   omega=    118.4042 meV
     lambda_tr(   4 )=       0.365772   gamma_tr=       7.168464 meV   omega=    118.4042 meV
     lambda___(   5 )=       0.210781   gamma___=       4.584004 meV   omega=    124.7287 meV
     lambda_tr(   5 )=       0.339259   gamma_tr=       7.378114 meV   omega=    124.7287 meV
     lambda___(   6 )=       0.198640   gamma___=       4.887920 meV   omega=    132.6745 meV
     lambda_tr(   6 )=       0.099140   gamma_tr=       2.439518 meV   omega=    132.6745 meV
     lambda___( tot )=       1.696374
     lambda_tr( tot )=       1.783808
     -------------------------------------------------------------------


     Number of (k,k+q) pairs on the Fermi surface:      125 out of      125


     ismear =     1 iq =       9 coord.:   0.00000  0.20000  0.60000 wt:   0.00800 Temp:  300.000K
     -------------------------------------------------------------------
     lambda___(   1 )=       0.227306   gamma___=       1.466960 meV   omega=     67.9458 meV
     lambda_tr(   1 )=      -0.027146   gamma_tr=      -0.175194 meV   omega=     67.9458 meV
     lambda___(   2 )=       0.281044   gamma___=       2.719815 meV   omega=     83.2036 meV
     lambda_tr(   2 )=       0.493965   gamma_tr=       4.780371 meV   omega=     83.2036 meV
     lambda___(   3 )=       0.541920   gamma___=       9.984364 meV   omega=    114.8026 meV
     lambda_tr(   3 )=       0.520006   gamma_tr=       9.580614 meV   omega=    114.8026 meV
     lambda___(   4 )=       0.257713   gamma___=       5.050712 meV   omega=    118.4042 meV
     lambda_tr(   4 )=       0.374313   gamma_tr=       7.335856 meV   omega=    118.4042 meV
     lambda___(   5 )=       0.216502   gamma___=       4.708435 meV   omega=    124.7287 meV
     lambda_tr(   5 )=       0.342710   gamma_tr=       7.453173 meV   omega=    124.7287 meV
     lambda___(   6 )=       0.201037   gamma___=       4.946892 meV   omega=    132.6745 meV
     lambda_tr(   6 )=       0.101286   gamma_tr=       2.492322 meV   omega=    132.6745 meV
     lambda___( tot )=       1.725522
     lambda_tr( tot )=       1.805133
     -------------------------------------------------------------------


     Number of (k,k+q) pairs on the Fermi surface:      125 out of      125


     ismear =     1 iq =      10 coord.:   0.00000  0.20000  0.80000 wt:   0.00800 Temp:  200.000K
     -------------------------------------------------------------------
     lambda___(   1 )=      -0.008454   gamma___=      -0.030316 meV   omega=     50.6476 meV
     lambda_tr(   1 )=       0.080028   gamma_tr=       0.286973 meV   omega=     50.6476 meV
     lambda___(   2 )=       0.118090   gamma___=       0.755357 meV   omega=     67.6439 meV
     lambda_tr(   2 )=       0.190183   gamma_tr=       1.216497 meV   omega=     67.6439 meV
     lambda___(   3 )=       0.260167   gamma___=       2.720520 meV   omega=     86.4886 meV
     lambda_tr(   3 )=       0.455250   gamma_tr=       4.760459 meV   omega=     86.4886 meV
     lambda___(   4 )=       0.356604   gamma___=       7.560299 meV   omega=    123.1503 meV
     lambda_tr(   4 )=       0.400834   gamma_tr=       8.498005 meV   omega=    123.1503 meV
     lambda___(   5 )=       0.117761   gamma___=       2.572340 meV   omega=    125.0035 meV
     lambda_tr(   5 )=       0.108250   gamma_tr=       2.364580 meV   omega=    125.0035 meV
     lambda___(   6 )=       0.390103   gamma___=      11.834871 meV   omega=    147.3166 meV
     lambda_tr(   6 )=       0.529259   gamma_tr=      16.056593 meV   omega=    147.3166 meV
     lambda___( tot )=       1.234271
     lambda_tr( tot )=       1.763804
     -------------------------------------------------------------------


     Number of (k,k+q) pairs on the Fermi surface:      125 out of      125


     ismear =     1 iq =      10 coord.:   0.00000  0.20000  0.80000 wt:   0.00800 Temp:  300.000K
     -------------------------------------------------------------------
     lambda___(   1 )=      -0.008871   gamma___=      -0.031810 meV   omega=     50.6476 meV
     lambda_tr(   1 )=       0.079770   gamma_tr=       0.286047 meV   omega=     50.6476 meV
     lambda___(   2 )=       0.116414   gamma___=       0.744637 meV   omega=     67.6439 meV
     lambda_tr(   2 )=       0.189859   gamma_tr=       1.214422 meV   omega=     67.6439 meV
     lambda___(   3 )=       0.257550   gamma___=       2.693153 meV   omega=     86.4886 meV
     lambda_tr(   3 )=       0.448956   gamma_tr=       4.694651 meV   omega=     86.4886 meV
     lambda___(   4 )=       0.362700   gamma___=       7.689545 meV   omega=    123.1503 meV
     lambda_tr(   4 )=       0.407901   gamma_tr=       8.647826 meV   omega=    123.1503 meV
     lambda___(   5 )=       0.122464   gamma___=       2.675067 meV   omega=    125.0035 meV
     lambda_tr(   5 )=       0.112248   gamma_tr=       2.451916 meV   omega=    125.0035 meV
     lambda___(   6 )=       0.388755   gamma___=      11.793995 meV   omega=    147.3166 meV
     lambda_tr(   6 )=       0.526218   gamma_tr=      15.964320 meV   omega=    147.3166 meV
     lambda___( tot )=       1.239013
     lambda_tr( tot )=       1.764951
     -------------------------------------------------------------------


     Number of (k,k+q) pairs on the Fermi surface:      125 out of      125


     ismear =     1 iq =      11 coord.:   0.00000  0.40000  0.00000 wt:   0.00800 Temp:  200.000K
     -------------------------------------------------------------------
     lambda___(   1 )=       0.255651   gamma___=       1.155874 meV   omega=     56.8710 meV
     lambda_tr(   1 )=       1.150046   gamma_tr=       5.199709 meV   omega=     56.8710 meV
     lambda___(   2 )=       0.255651   gamma___=       1.155874 meV   omega=     56.8710 meV
     lambda_tr(   2 )=       1.150046   gamma_tr=       5.199709 meV   omega=     56.8710 meV
     lambda___(   3 )=       0.217505   gamma___=       3.604767 meV   omega=    108.8838 meV
     lambda_tr(   3 )=       0.653853   gamma_tr=      10.836482 meV   omega=    108.8838 meV
     lambda___(   4 )=       0.297826   gamma___=       6.155006 meV   omega=    121.5883 meV
     lambda_tr(   4 )=       0.766396   gamma_tr=      15.838663 meV   omega=    121.5883 meV
     lambda___(   5 )=       0.297826   gamma___=       6.155006 meV   omega=    121.5883 meV
     lambda_tr(   5 )=       0.766396   gamma_tr=      15.838663 meV   omega=    121.5883 meV
     lambda___(   6 )=       0.215955   gamma___=       6.309334 meV   omega=    144.5670 meV
     lambda_tr(   6 )=       0.393836   gamma_tr=      11.506289 meV   omega=    144.5670 meV
     lambda___( tot )=       1.540413
     lambda_tr( tot )=       4.880572
     -------------------------------------------------------------------


     Number of (k,k+q) pairs on the Fermi surface:      125 out of      125


     ismear =     1 iq =      11 coord.:   0.00000  0.40000  0.00000 wt:   0.00800 Temp:  300.000K
     -------------------------------------------------------------------
     lambda___(   1 )=       0.258425   gamma___=       1.168420 meV   omega=     56.8710 meV
     lambda_tr(   1 )=       1.153032   gamma_tr=       5.213211 meV   omega=     56.8710 meV
     lambda___(   2 )=       0.258425   gamma___=       1.168420 meV   omega=     56.8710 meV
     lambda_tr(   2 )=       1.153032   gamma_tr=       5.213211 meV   omega=     56.8710 meV
     lambda___(   3 )=       0.219670   gamma___=       3.640656 meV   omega=    108.8838 meV
     lambda_tr(   3 )=       0.658343   gamma_tr=      10.910901 meV   omega=    108.8838 meV
     lambda___(   4 )=       0.317229   gamma___=       6.555996 meV   omega=    121.5883 meV
     lambda_tr(   4 )=       0.785483   gamma_tr=      16.233127 meV   omega=    121.5883 meV
     lambda___(   5 )=       0.317229   gamma___=       6.555996 meV   omega=    121.5883 meV
     lambda_tr(   5 )=       0.785483   gamma_tr=      16.233127 meV   omega=    121.5883 meV
     lambda___(   6 )=       0.220118   gamma___=       6.430968 meV   omega=    144.5670 meV
     lambda_tr(   6 )=       0.397594   gamma_tr=      11.616097 meV   omega=    144.5670 meV
     lambda___( tot )=       1.591098
     lambda_tr( tot )=       4.932967
     -------------------------------------------------------------------


     Number of (k,k+q) pairs on the Fermi surface:      125 out of      125


     ismear =     1 iq =      12 coord.:   0.00000  0.40000  0.20000 wt:   0.00800 Temp:  200.000K
     -------------------------------------------------------------------
     lambda___(   1 )=       0.103627   gamma___=       0.607078 meV   omega=     64.7358 meV
     lambda_tr(   1 )=      -0.406090   gamma_tr=      -2.378993 meV   omega=     64.7358 meV
     lambda___(   2 )=       0.140976   gamma___=       0.959915 meV   omega=     69.7916 meV
     lambda_tr(   2 )=      -0.085054   gamma_tr=      -0.579142 meV   omega=     69.7916 meV
     lambda___(   3 )=       0.220912   gamma___=       3.033441 meV   omega=     99.1101 meV
     lambda_tr(   3 )=       0.061309   gamma_tr=       0.841861 meV   omega=     99.1101 meV
     lambda___(   4 )=       0.182627   gamma___=       3.653299 meV   omega=    119.6241 meV
     lambda_tr(   4 )=      -0.069097   gamma_tr=      -1.382219 meV   omega=    119.6241 meV
     lambda___(   5 )=       0.164544   gamma___=       3.447311 meV   omega=    122.4218 meV
     lambda_tr(   5 )=       0.138745   gamma_tr=       2.906806 meV   omega=    122.4218 meV
     lambda___(   6 )=       0.345049   gamma___=      10.322640 meV   omega=    146.2898 meV
     lambda_tr(   6 )=       0.145563   gamma_tr=       4.354728 meV   omega=    146.2898 meV
     lambda___( tot )=       1.157735
     lambda_tr( tot )=      -0.214624
     -------------------------------------------------------------------


     Number of (k,k+q) pairs on the Fermi surface:      125 out of      125


     ismear =     1 iq =      12 coord.:   0.00000  0.40000  0.20000 wt:   0.00800 Temp:  300.000K
     -------------------------------------------------------------------
     lambda___(   1 )=       0.131892   gamma___=       0.772663 meV   omega=     64.7358 meV
     lambda_tr(   1 )=      -0.354708   gamma_tr=      -2.077983 meV   omega=     64.7358 meV
     lambda___(   2 )=       0.142038   gamma___=       0.967145 meV   omega=     69.7916 meV
     lambda_tr(   2 )=      -0.068562   gamma_tr=      -0.466845 meV   omega=     69.7916 meV
     lambda___(   3 )=       0.223189   gamma___=       3.064718 meV   omega=     99.1101 meV
     lambda_tr(   3 )=       0.067298   gamma_tr=       0.924107 meV   omega=     99.1101 meV
     lambda___(   4 )=       0.201278   gamma___=       4.026396 meV   omega=    119.6241 meV
     lambda_tr(   4 )=      -0.045491   gamma_tr=      -0.910016 meV   omega=    119.6241 meV
     lambda___(   5 )=       0.178568   gamma___=       3.741126 meV   omega=    122.4218 meV
     lambda_tr(   5 )=       0.157327   gamma_tr=       3.296108 meV   omega=    122.4218 meV
     lambda___(   6 )=       0.346691   gamma___=      10.371765 meV   omega=    146.2898 meV
     lambda_tr(   6 )=       0.148771   gamma_tr=       4.450699 meV   omega=    146.2898 meV
     lambda___( tot )=       1.223657
     lambda_tr( tot )=      -0.095365
     -------------------------------------------------------------------


     Number of (k,k+q) pairs on the Fermi surface:      125 out of      125


     ismear =     1 iq =      13 coord.:   0.00000  0.40000  0.40000 wt:   0.00800 Temp:  200.000K
     -------------------------------------------------------------------
     lambda___(   1 )=       0.235516   gamma___=       2.111895 meV   omega=     80.0912 meV
     lambda_tr(   1 )=       0.276377   gamma_tr=       2.478299 meV   omega=     80.0912 meV
     lambda___(   2 )=       0.235516   gamma___=       2.111895 meV   omega=     80.0912 meV
     lambda_tr(   2 )=       0.276377   gamma_tr=       2.478299 meV   omega=     80.0912 meV
     lambda___(   3 )=       0.377286   gamma___=       6.809170 meV   omega=    113.6243 meV
     lambda_tr(   3 )=       0.399385   gamma_tr=       7.208020 meV   omega=    113.6243 meV
     lambda___(   4 )=       0.330169   gamma___=       6.006611 meV   omega=    114.0791 meV
     lambda_tr(   4 )=       0.358872   gamma_tr=       6.528807 meV   omega=    114.0791 meV
     lambda___(   5 )=       0.330169   gamma___=       6.006611 meV   omega=    114.0791 meV
     lambda_tr(   5 )=       0.358872   gamma_tr=       6.528807 meV   omega=    114.0791 meV
     lambda___(   6 )=       0.262994   gamma___=       7.871227 meV   omega=    146.3214 meV
     lambda_tr(   6 )=       0.275751   gamma_tr=       8.253039 meV   omega=    146.3214 meV
     lambda___( tot )=       1.771649
     lambda_tr( tot )=       1.945635
     -------------------------------------------------------------------


     Number of (k,k+q) pairs on the Fermi surface:      125 out of      125


     ismear =     1 iq =      13 coord.:   0.00000  0.40000  0.40000 wt:   0.00800 Temp:  300.000K
     -------------------------------------------------------------------
     lambda___(   1 )=       0.238267   gamma___=       2.136563 meV   omega=     80.0912 meV
     lambda_tr(   1 )=       0.273838   gamma_tr=       2.455526 meV   omega=     80.0912 meV
     lambda___(   2 )=       0.238267   gamma___=       2.136563 meV   omega=     80.0912 meV
     lambda_tr(   2 )=       0.273838   gamma_tr=       2.455526 meV   omega=     80.0912 meV
     lambda___(   3 )=       0.381385   gamma___=       6.883162 meV   omega=    113.6243 meV
     lambda_tr(   3 )=       0.403635   gamma_tr=       7.284725 meV   omega=    113.6243 meV
     lambda___(   4 )=       0.333308   gamma___=       6.063720 meV   omega=    114.0791 meV
     lambda_tr(   4 )=       0.359890   gamma_tr=       6.547313 meV   omega=    114.0791 meV
     lambda___(   5 )=       0.333308   gamma___=       6.063720 meV   omega=    114.0791 meV
     lambda_tr(   5 )=       0.359890   gamma_tr=       6.547313 meV   omega=    114.0791 meV
     lambda___(   6 )=       0.264472   gamma___=       7.915480 meV   omega=    146.3214 meV
     lambda_tr(   6 )=       0.275857   gamma_tr=       8.256208 meV   omega=    146.3214 meV
     lambda___( tot )=       1.789007
     lambda_tr( tot )=       1.946947
     -------------------------------------------------------------------


     Number of (k,k+q) pairs on the Fermi surface:      125 out of      125


     ismear =     1 iq =      14 coord.:   0.00000  0.40000  0.60000 wt:   0.00800 Temp:  200.000K
     -------------------------------------------------------------------
     lambda___(   1 )=       0.148247   gamma___=       1.415120 meV   omega=     82.6349 meV
     lambda_tr(   1 )=       0.146719   gamma_tr=       1.400540 meV   omega=     82.6349 meV
     lambda___(   2 )=       0.144104   gamma___=       2.016256 meV   omega=    100.0448 meV
     lambda_tr(   2 )=       0.145378   gamma_tr=       2.034088 meV   omega=    100.0448 meV
     lambda___(   3 )=       0.112378   gamma___=       1.941134 meV   omega=    111.1594 meV
     lambda_tr(   3 )=       0.114829   gamma_tr=       1.983476 meV   omega=    111.1594 meV
     lambda___(   4 )=       0.206348   gamma___=       3.657904 meV   omega=    112.6094 meV
     lambda_tr(   4 )=       0.221694   gamma_tr=       3.929930 meV   omega=    112.6094 meV
     lambda___(   5 )=       0.605963   gamma___=      12.188701 meV   omega=    119.9540 meV
     lambda_tr(   5 )=       0.623004   gamma_tr=      12.531473 meV   omega=    119.9540 meV
     lambda___(   6 )=       0.205042   gamma___=       5.258444 meV   omega=    135.4460 meV
     lambda_tr(   6 )=       0.208783   gamma_tr=       5.354394 meV   omega=    135.4460 meV
     lambda___( tot )=       1.422082
     lambda_tr( tot )=       1.460408
     -------------------------------------------------------------------


     Number of (k,k+q) pairs on the Fermi surface:      125 out of      125


     ismear =     1 iq =      14 coord.:   0.00000  0.40000  0.60000 wt:   0.00800 Temp:  300.000K
     -------------------------------------------------------------------
     lambda___(   1 )=       0.164336   gamma___=       1.568705 meV   omega=     82.6349 meV
     lambda_tr(   1 )=       0.147014   gamma_tr=       1.403357 meV   omega=     82.6349 meV
     lambda___(   2 )=       0.156673   gamma___=       2.192119 meV   omega=    100.0448 meV
     lambda_tr(   2 )=       0.142578   gamma_tr=       1.994904 meV   omega=    100.0448 meV
     lambda___(   3 )=       0.127502   gamma___=       2.202365 meV   omega=    111.1594 meV
     lambda_tr(   3 )=       0.123758   gamma_tr=       2.137709 meV   omega=    111.1594 meV
     lambda___(   4 )=       0.239279   gamma___=       4.241651 meV   omega=    112.6094 meV
     lambda_tr(   4 )=       0.237229   gamma_tr=       4.205321 meV   omega=    112.6094 meV
     lambda___(   5 )=       0.619465   gamma___=      12.460279 meV   omega=    119.9540 meV
     lambda_tr(   5 )=       0.628473   gamma_tr=      12.641479 meV   omega=    119.9540 meV
     lambda___(   6 )=       0.208792   gamma___=       5.354605 meV   omega=    135.4460 meV
     lambda_tr(   6 )=       0.210538   gamma_tr=       5.399389 meV   omega=    135.4460 meV
     lambda___( tot )=       1.516045
     lambda_tr( tot )=       1.489591
     -------------------------------------------------------------------


     Number of (k,k+q) pairs on the Fermi surface:      125 out of      125


     ismear =     1 iq =      15 coord.:   0.00000  0.40000  0.80000 wt:   0.00800 Temp:  200.000K
     -------------------------------------------------------------------
     lambda___(   1 )=       0.228524   gamma___=       1.474820 meV   omega=     67.9458 meV
     lambda_tr(   1 )=      -0.024657   gamma_tr=      -0.159130 meV   omega=     67.9458 meV
     lambda___(   2 )=       0.276393   gamma___=       2.674808 meV   omega=     83.2036 meV
     lambda_tr(   2 )=       0.489697   gamma_tr=       4.739070 meV   omega=     83.2036 meV
     lambda___(   3 )=       0.533947   gamma___=       9.837458 meV   omega=    114.8026 meV
     lambda_tr(   3 )=       0.514598   gamma_tr=       9.480969 meV   omega=    114.8026 meV
     lambda___(   4 )=       0.248089   gamma___=       4.862094 meV   omega=    118.4042 meV
     lambda_tr(   4 )=       0.365772   gamma_tr=       7.168462 meV   omega=    118.4042 meV
     lambda___(   5 )=       0.210781   gamma___=       4.584004 meV   omega=    124.7287 meV
     lambda_tr(   5 )=       0.339259   gamma_tr=       7.378112 meV   omega=    124.7287 meV
     lambda___(   6 )=       0.198640   gamma___=       4.887920 meV   omega=    132.6745 meV
     lambda_tr(   6 )=       0.099140   gamma_tr=       2.439516 meV   omega=    132.6745 meV
     lambda___( tot )=       1.696374
     lambda_tr( tot )=       1.783807
     -------------------------------------------------------------------


     Number of (k,k+q) pairs on the Fermi surface:      125 out of      125


     ismear =     1 iq =      15 coord.:   0.00000  0.40000  0.80000 wt:   0.00800 Temp:  300.000K
     -------------------------------------------------------------------
     lambda___(   1 )=       0.227306   gamma___=       1.466960 meV   omega=     67.9458 meV
     lambda_tr(   1 )=      -0.027147   gamma_tr=      -0.175195 meV   omega=     67.9458 meV
     lambda___(   2 )=       0.281044   gamma___=       2.719815 meV   omega=     83.2036 meV
     lambda_tr(   2 )=       0.493965   gamma_tr=       4.780370 meV   omega=     83.2036 meV
     lambda___(   3 )=       0.541920   gamma___=       9.984364 meV   omega=    114.8026 meV
     lambda_tr(   3 )=       0.520006   gamma_tr=       9.580613 meV   omega=    114.8026 meV
     lambda___(   4 )=       0.257713   gamma___=       5.050711 meV   omega=    118.4042 meV
     lambda_tr(   4 )=       0.374313   gamma_tr=       7.335855 meV   omega=    118.4042 meV
     lambda___(   5 )=       0.216502   gamma___=       4.708435 meV   omega=    124.7287 meV
     lambda_tr(   5 )=       0.342710   gamma_tr=       7.453171 meV   omega=    124.7287 meV
     lambda___(   6 )=       0.201037   gamma___=       4.946892 meV   omega=    132.6745 meV
     lambda_tr(   6 )=       0.101286   gamma_tr=       2.492321 meV   omega=    132.6745 meV
     lambda___( tot )=       1.725522
     lambda_tr( tot )=       1.805133
     -------------------------------------------------------------------


     Number of (k,k+q) pairs on the Fermi surface:      125 out of      125


     ismear =     1 iq =      16 coord.:   0.00000  0.60000  0.00000 wt:   0.00800 Temp:  200.000K
     -------------------------------------------------------------------
     lambda___(   1 )=       0.255651   gamma___=       1.155875 meV   omega=     56.8710 meV
     lambda_tr(   1 )=       1.150046   gamma_tr=       5.199708 meV   omega=     56.8710 meV
     lambda___(   2 )=       0.255651   gamma___=       1.155875 meV   omega=     56.8710 meV
     lambda_tr(   2 )=       1.150046   gamma_tr=       5.199708 meV   omega=     56.8710 meV
     lambda___(   3 )=       0.217505   gamma___=       3.604768 meV   omega=    108.8838 meV
     lambda_tr(   3 )=       0.653853   gamma_tr=      10.836480 meV   omega=    108.8838 meV
     lambda___(   4 )=       0.297826   gamma___=       6.155008 meV   omega=    121.5883 meV
     lambda_tr(   4 )=       0.766396   gamma_tr=      15.838660 meV   omega=    121.5883 meV
     lambda___(   5 )=       0.297826   gamma___=       6.155008 meV   omega=    121.5883 meV
     lambda_tr(   5 )=       0.766396   gamma_tr=      15.838660 meV   omega=    121.5883 meV
     lambda___(   6 )=       0.215955   gamma___=       6.309334 meV   omega=    144.5670 meV
     lambda_tr(   6 )=       0.393836   gamma_tr=      11.506288 meV   omega=    144.5670 meV
     lambda___( tot )=       1.540414
     lambda_tr( tot )=       4.880571
     -------------------------------------------------------------------


     Number of (k,k+q) pairs on the Fermi surface:      125 out of      125


     ismear =     1 iq =      16 coord.:   0.00000  0.60000  0.00000 wt:   0.00800 Temp:  300.000K
     -------------------------------------------------------------------
     lambda___(   1 )=       0.258425   gamma___=       1.168420 meV   omega=     56.8710 meV
     lambda_tr(   1 )=       1.153032   gamma_tr=       5.213210 meV   omega=     56.8710 meV
     lambda___(   2 )=       0.258425   gamma___=       1.168420 meV   omega=     56.8710 meV
     lambda_tr(   2 )=       1.153032   gamma_tr=       5.213210 meV   omega=     56.8710 meV
     lambda___(   3 )=       0.219670   gamma___=       3.640657 meV   omega=    108.8838 meV
     lambda_tr(   3 )=       0.658343   gamma_tr=      10.910898 meV   omega=    108.8838 meV
     lambda___(   4 )=       0.317229   gamma___=       6.555998 meV   omega=    121.5883 meV
     lambda_tr(   4 )=       0.785483   gamma_tr=      16.233125 meV   omega=    121.5883 meV
     lambda___(   5 )=       0.317229   gamma___=       6.555998 meV   omega=    121.5883 meV
     lambda_tr(   5 )=       0.785483   gamma_tr=      16.233125 meV   omega=    121.5883 meV
     lambda___(   6 )=       0.220118   gamma___=       6.430968 meV   omega=    144.5670 meV
     lambda_tr(   6 )=       0.397594   gamma_tr=      11.616096 meV   omega=    144.5670 meV
     lambda___( tot )=       1.591098
     lambda_tr( tot )=       4.932966
     -------------------------------------------------------------------


     Number of (k,k+q) pairs on the Fermi surface:      125 out of      125


     ismear =     1 iq =      17 coord.:   0.00000  0.60000  0.20000 wt:   0.00800 Temp:  200.000K
     -------------------------------------------------------------------
     lambda___(   1 )=       0.228524   gamma___=       1.474820 meV   omega=     67.9458 meV
     lambda_tr(   1 )=      -0.024657   gamma_tr=      -0.159129 meV   omega=     67.9458 meV
     lambda___(   2 )=       0.276393   gamma___=       2.674808 meV   omega=     83.2036 meV
     lambda_tr(   2 )=       0.489698   gamma_tr=       4.739072 meV   omega=     83.2036 meV
     lambda___(   3 )=       0.533947   gamma___=       9.837459 meV   omega=    114.8026 meV
     lambda_tr(   3 )=       0.514598   gamma_tr=       9.480971 meV   omega=    114.8026 meV
     lambda___(   4 )=       0.248089   gamma___=       4.862094 meV   omega=    118.4042 meV
     lambda_tr(   4 )=       0.365772   gamma_tr=       7.168465 meV   omega=    118.4042 meV
     lambda___(   5 )=       0.210781   gamma___=       4.584004 meV   omega=    124.7287 meV
     lambda_tr(   5 )=       0.339259   gamma_tr=       7.378115 meV   omega=    124.7287 meV
     lambda___(   6 )=       0.198640   gamma___=       4.887920 meV   omega=    132.6745 meV
     lambda_tr(   6 )=       0.099140   gamma_tr=       2.439518 meV   omega=    132.6745 meV
     lambda___( tot )=       1.696374
     lambda_tr( tot )=       1.783808
     -------------------------------------------------------------------


     Number of (k,k+q) pairs on the Fermi surface:      125 out of      125


     ismear =     1 iq =      17 coord.:   0.00000  0.60000  0.20000 wt:   0.00800 Temp:  300.000K
     -------------------------------------------------------------------
     lambda___(   1 )=       0.227306   gamma___=       1.466960 meV   omega=     67.9458 meV
     lambda_tr(   1 )=      -0.027146   gamma_tr=      -0.175193 meV   omega=     67.9458 meV
     lambda___(   2 )=       0.281044   gamma___=       2.719815 meV   omega=     83.2036 meV
     lambda_tr(   2 )=       0.493965   gamma_tr=       4.780372 meV   omega=     83.2036 meV
     lambda___(   3 )=       0.541920   gamma___=       9.984365 meV   omega=    114.8026 meV
     lambda_tr(   3 )=       0.520006   gamma_tr=       9.580617 meV   omega=    114.8026 meV
     lambda___(   4 )=       0.257713   gamma___=       5.050711 meV   omega=    118.4042 meV
     lambda_tr(   4 )=       0.374313   gamma_tr=       7.335857 meV   omega=    118.4042 meV
     lambda___(   5 )=       0.216502   gamma___=       4.708435 meV   omega=    124.7287 meV
     lambda_tr(   5 )=       0.342710   gamma_tr=       7.453174 meV   omega=    124.7287 meV
     lambda___(   6 )=       0.201037   gamma___=       4.946892 meV   omega=    132.6745 meV
     lambda_tr(   6 )=       0.101286   gamma_tr=       2.492322 meV   omega=    132.6745 meV
     lambda___( tot )=       1.725522
     lambda_tr( tot )=       1.805134
     -------------------------------------------------------------------


     Number of (k,k+q) pairs on the Fermi surface:      125 out of      125


     ismear =     1 iq =      18 coord.:   0.00000  0.60000  0.40000 wt:   0.00800 Temp:  200.000K
     -------------------------------------------------------------------
     lambda___(   1 )=       0.148247   gamma___=       1.415121 meV   omega=     82.6349 meV
     lambda_tr(   1 )=       0.146719   gamma_tr=       1.400541 meV   omega=     82.6349 meV
     lambda___(   2 )=       0.144104   gamma___=       2.016256 meV   omega=    100.0448 meV
     lambda_tr(   2 )=       0.145378   gamma_tr=       2.034088 meV   omega=    100.0448 meV
     lambda___(   3 )=       0.112378   gamma___=       1.941135 meV   omega=    111.1594 meV
     lambda_tr(   3 )=       0.114829   gamma_tr=       1.983476 meV   omega=    111.1594 meV
     lambda___(   4 )=       0.206348   gamma___=       3.657904 meV   omega=    112.6094 meV
     lambda_tr(   4 )=       0.221694   gamma_tr=       3.929930 meV   omega=    112.6094 meV
     lambda___(   5 )=       0.605963   gamma___=      12.188702 meV   omega=    119.9540 meV
     lambda_tr(   5 )=       0.623004   gamma_tr=      12.531472 meV   omega=    119.9540 meV
     lambda___(   6 )=       0.205042   gamma___=       5.258444 meV   omega=    135.4460 meV
     lambda_tr(   6 )=       0.208783   gamma_tr=       5.354393 meV   omega=    135.4460 meV
     lambda___( tot )=       1.422082
     lambda_tr( tot )=       1.460408
     -------------------------------------------------------------------


     Number of (k,k+q) pairs on the Fermi surface:      125 out of      125


     ismear =     1 iq =      18 coord.:   0.00000  0.60000  0.40000 wt:   0.00800 Temp:  300.000K
     -------------------------------------------------------------------
     lambda___(   1 )=       0.164336   gamma___=       1.568705 meV   omega=     82.6349 meV
     lambda_tr(   1 )=       0.147014   gamma_tr=       1.403358 meV   omega=     82.6349 meV
     lambda___(   2 )=       0.156673   gamma___=       2.192119 meV   omega=    100.0448 meV
     lambda_tr(   2 )=       0.142578   gamma_tr=       1.994905 meV   omega=    100.0448 meV
     lambda___(   3 )=       0.127502   gamma___=       2.202365 meV   omega=    111.1594 meV
     lambda_tr(   3 )=       0.123758   gamma_tr=       2.137709 meV   omega=    111.1594 meV
     lambda___(   4 )=       0.239279   gamma___=       4.241652 meV   omega=    112.6094 meV
     lambda_tr(   4 )=       0.237229   gamma_tr=       4.205322 meV   omega=    112.6094 meV
     lambda___(   5 )=       0.619465   gamma___=      12.460279 meV   omega=    119.9540 meV
     lambda_tr(   5 )=       0.628473   gamma_tr=      12.641476 meV   omega=    119.9540 meV
     lambda___(   6 )=       0.208792   gamma___=       5.354605 meV   omega=    135.4460 meV
     lambda_tr(   6 )=       0.210538   gamma_tr=       5.399389 meV   omega=    135.4460 meV
     lambda___( tot )=       1.516046
     lambda_tr( tot )=       1.489591
     -------------------------------------------------------------------


     Number of (k,k+q) pairs on the Fermi surface:      125 out of      125


     ismear =     1 iq =      19 coord.:   0.00000  0.60000  0.60000 wt:   0.00800 Temp:  200.000K
     -------------------------------------------------------------------
     lambda___(   1 )=       0.235516   gamma___=       2.111895 meV   omega=     80.0912 meV
     lambda_tr(   1 )=       0.276377   gamma_tr=       2.478299 meV   omega=     80.0912 meV
     lambda___(   2 )=       0.235516   gamma___=       2.111895 meV   omega=     80.0912 meV
     lambda_tr(   2 )=       0.276377   gamma_tr=       2.478299 meV   omega=     80.0912 meV
     lambda___(   3 )=       0.377286   gamma___=       6.809170 meV   omega=    113.6243 meV
     lambda_tr(   3 )=       0.399385   gamma_tr=       7.208020 meV   omega=    113.6243 meV
     lambda___(   4 )=       0.330169   gamma___=       6.006611 meV   omega=    114.0791 meV
     lambda_tr(   4 )=       0.358872   gamma_tr=       6.528807 meV   omega=    114.0791 meV
     lambda___(   5 )=       0.330169   gamma___=       6.006611 meV   omega=    114.0791 meV
     lambda_tr(   5 )=       0.358872   gamma_tr=       6.528807 meV   omega=    114.0791 meV
     lambda___(   6 )=       0.262994   gamma___=       7.871227 meV   omega=    146.3214 meV
     lambda_tr(   6 )=       0.275751   gamma_tr=       8.253038 meV   omega=    146.3214 meV
     lambda___( tot )=       1.771649
     lambda_tr( tot )=       1.945635
     -------------------------------------------------------------------


     Number of (k,k+q) pairs on the Fermi surface:      125 out of      125


     ismear =     1 iq =      19 coord.:   0.00000  0.60000  0.60000 wt:   0.00800 Temp:  300.000K
     -------------------------------------------------------------------
     lambda___(   1 )=       0.238267   gamma___=       2.136563 meV   omega=     80.0912 meV
     lambda_tr(   1 )=       0.273838   gamma_tr=       2.455526 meV   omega=     80.0912 meV
     lambda___(   2 )=       0.238267   gamma___=       2.136563 meV   omega=     80.0912 meV
     lambda_tr(   2 )=       0.273838   gamma_tr=       2.455526 meV   omega=     80.0912 meV
     lambda___(   3 )=       0.381385   gamma___=       6.883162 meV   omega=    113.6243 meV
     lambda_tr(   3 )=       0.403635   gamma_tr=       7.284725 meV   omega=    113.6243 meV
     lambda___(   4 )=       0.333308   gamma___=       6.063720 meV   omega=    114.0791 meV
     lambda_tr(   4 )=       0.359890   gamma_tr=       6.547313 meV   omega=    114.0791 meV
     lambda___(   5 )=       0.333308   gamma___=       6.063720 meV   omega=    114.0791 meV
     lambda_tr(   5 )=       0.359890   gamma_tr=       6.547313 meV   omega=    114.0791 meV
     lambda___(   6 )=       0.264472   gamma___=       7.915480 meV   omega=    146.3214 meV
     lambda_tr(   6 )=       0.275857   gamma_tr=       8.256208 meV   omega=    146.3214 meV
     lambda___( tot )=       1.789007
     lambda_tr( tot )=       1.946947
     -------------------------------------------------------------------


     Number of (k,k+q) pairs on the Fermi surface:      125 out of      125


     ismear =     1 iq =      20 coord.:   0.00000  0.60000  0.80000 wt:   0.00800 Temp:  200.000K
     -------------------------------------------------------------------
     lambda___(   1 )=       0.103627   gamma___=       0.607078 meV   omega=     64.7358 meV
     lambda_tr(   1 )=      -0.406089   gamma_tr=      -2.378991 meV   omega=     64.7358 meV
     lambda___(   2 )=       0.140976   gamma___=       0.959915 meV   omega=     69.7916 meV
     lambda_tr(   2 )=      -0.085054   gamma_tr=      -0.579140 meV   omega=     69.7916 meV
     lambda___(   3 )=       0.220911   gamma___=       3.033440 meV   omega=     99.1101 meV
     lambda_tr(   3 )=       0.061309   gamma_tr=       0.841862 meV   omega=     99.1101 meV
     lambda___(   4 )=       0.182627   gamma___=       3.653298 meV   omega=    119.6241 meV
     lambda_tr(   4 )=      -0.069097   gamma_tr=      -1.382215 meV   omega=    119.6241 meV
     lambda___(   5 )=       0.164544   gamma___=       3.447310 meV   omega=    122.4218 meV
     lambda_tr(   5 )=       0.138745   gamma_tr=       2.906806 meV   omega=    122.4218 meV
     lambda___(   6 )=       0.345049   gamma___=      10.322640 meV   omega=    146.2898 meV
     lambda_tr(   6 )=       0.145563   gamma_tr=       4.354731 meV   omega=    146.2898 meV
     lambda___( tot )=       1.157735
     lambda_tr( tot )=      -0.214623
     -------------------------------------------------------------------


     Number of (k,k+q) pairs on the Fermi surface:      125 out of      125


     ismear =     1 iq =      20 coord.:   0.00000  0.60000  0.80000 wt:   0.00800 Temp:  300.000K
     -------------------------------------------------------------------
     lambda___(   1 )=       0.131892   gamma___=       0.772663 meV   omega=     64.7358 meV
     lambda_tr(   1 )=      -0.354707   gamma_tr=      -2.077981 meV   omega=     64.7358 meV
     lambda___(   2 )=       0.142038   gamma___=       0.967146 meV   omega=     69.7916 meV
     lambda_tr(   2 )=      -0.068562   gamma_tr=      -0.466844 meV   omega=     69.7916 meV
     lambda___(   3 )=       0.223189   gamma___=       3.064717 meV   omega=     99.1101 meV
     lambda_tr(   3 )=       0.067298   gamma_tr=       0.924107 meV   omega=     99.1101 meV
     lambda___(   4 )=       0.201278   gamma___=       4.026396 meV   omega=    119.6241 meV
     lambda_tr(   4 )=      -0.045491   gamma_tr=      -0.910013 meV   omega=    119.6241 meV
     lambda___(   5 )=       0.178568   gamma___=       3.741125 meV   omega=    122.4218 meV
     lambda_tr(   5 )=       0.157327   gamma_tr=       3.296107 meV   omega=    122.4218 meV
     lambda___(   6 )=       0.346691   gamma___=      10.371765 meV   omega=    146.2898 meV
     lambda_tr(   6 )=       0.148771   gamma_tr=       4.450703 meV   omega=    146.2898 meV
     lambda___( tot )=       1.223657
     lambda_tr( tot )=      -0.095364
     -------------------------------------------------------------------


     Number of (k,k+q) pairs on the Fermi surface:      125 out of      125


     ismear =     1 iq =      21 coord.:   0.00000  0.80000  0.00000 wt:   0.00800 Temp:  200.000K
     -------------------------------------------------------------------
     lambda___(   1 )=       0.036299   gamma___=       0.058480 meV   omega=     33.9483 meV
     lambda_tr(   1 )=       0.151328   gamma_tr=       0.243801 meV   omega=     33.9483 meV
     lambda___(   2 )=       0.036299   gamma___=       0.058480 meV   omega=     33.9483 meV
     lambda_tr(   2 )=       0.151328   gamma_tr=       0.243801 meV   omega=     33.9483 meV
     lambda___(   3 )=       0.377925   gamma___=       2.080335 meV   omega=     62.7513 meV
     lambda_tr(   3 )=       0.367631   gamma_tr=       2.023672 meV   omega=     62.7513 meV
     lambda___(   4 )=       0.207759   gamma___=       4.611960 meV   omega=    126.0150 meV
     lambda_tr(   4 )=       0.208333   gamma_tr=       4.624714 meV   omega=    126.0150 meV
     lambda___(   5 )=       0.207759   gamma___=       4.611960 meV   omega=    126.0150 meV
     lambda_tr(   5 )=       0.208333   gamma_tr=       4.624714 meV   omega=    126.0150 meV
     lambda___(   6 )=       0.816100   gamma___=      27.198662 meV   omega=    154.4049 meV
     lambda_tr(   6 )=       0.812649   gamma_tr=      27.083621 meV   omega=    154.4049 meV
     lambda___( tot )=       1.682141
     lambda_tr( tot )=       1.899603
     -------------------------------------------------------------------


     Number of (k,k+q) pairs on the Fermi surface:      125 out of      125


     ismear =     1 iq =      21 coord.:   0.00000  0.80000  0.00000 wt:   0.00800 Temp:  300.000K
     -------------------------------------------------------------------
     lambda___(   1 )=       0.081851   gamma___=       0.131868 meV   omega=     33.9483 meV
     lambda_tr(   1 )=       0.225216   gamma_tr=       0.362842 meV   omega=     33.9483 meV
     lambda___(   2 )=       0.081851   gamma___=       0.131868 meV   omega=     33.9483 meV
     lambda_tr(   2 )=       0.225216   gamma_tr=       0.362842 meV   omega=     33.9483 meV
     lambda___(   3 )=       0.382736   gamma___=       2.106817 meV   omega=     62.7513 meV
     lambda_tr(   3 )=       0.383749   gamma_tr=       2.112396 meV   omega=     62.7513 meV
     lambda___(   4 )=       0.230848   gamma___=       5.124512 meV   omega=    126.0150 meV
     lambda_tr(   4 )=       0.234765   gamma_tr=       5.211465 meV   omega=    126.0150 meV
     lambda___(   5 )=       0.230848   gamma___=       5.124512 meV   omega=    126.0150 meV
     lambda_tr(   5 )=       0.234765   gamma_tr=       5.211465 meV   omega=    126.0150 meV
     lambda___(   6 )=       0.819322   gamma___=      27.306036 meV   omega=    154.4049 meV
     lambda_tr(   6 )=       0.815154   gamma_tr=      27.167123 meV   omega=    154.4049 meV
     lambda___( tot )=       1.827456
     lambda_tr( tot )=       2.118866
     -------------------------------------------------------------------


     Number of (k,k+q) pairs on the Fermi surface:      125 out of      125


     ismear =     1 iq =      22 coord.:   0.00000  0.80000  0.20000 wt:   0.00800 Temp:  200.000K
     -------------------------------------------------------------------
     lambda___(   1 )=      -0.008454   gamma___=      -0.030316 meV   omega=     50.6476 meV
     lambda_tr(   1 )=       0.080028   gamma_tr=       0.286973 meV   omega=     50.6476 meV
     lambda___(   2 )=       0.118090   gamma___=       0.755357 meV   omega=     67.6439 meV
     lambda_tr(   2 )=       0.190183   gamma_tr=       1.216497 meV   omega=     67.6439 meV
     lambda___(   3 )=       0.260167   gamma___=       2.720520 meV   omega=     86.4886 meV
     lambda_tr(   3 )=       0.455250   gamma_tr=       4.760459 meV   omega=     86.4886 meV
     lambda___(   4 )=       0.356604   gamma___=       7.560299 meV   omega=    123.1503 meV
     lambda_tr(   4 )=       0.400834   gamma_tr=       8.498005 meV   omega=    123.1503 meV
     lambda___(   5 )=       0.117761   gamma___=       2.572340 meV   omega=    125.0035 meV
     lambda_tr(   5 )=       0.108250   gamma_tr=       2.364580 meV   omega=    125.0035 meV
     lambda___(   6 )=       0.390103   gamma___=      11.834871 meV   omega=    147.3166 meV
     lambda_tr(   6 )=       0.529259   gamma_tr=      16.056593 meV   omega=    147.3166 meV
     lambda___( tot )=       1.234271
     lambda_tr( tot )=       1.763804
     -------------------------------------------------------------------


     Number of (k,k+q) pairs on the Fermi surface:      125 out of      125


     ismear =     1 iq =      22 coord.:   0.00000  0.80000  0.20000 wt:   0.00800 Temp:  300.000K
     -------------------------------------------------------------------
     lambda___(   1 )=      -0.008871   gamma___=      -0.031810 meV   omega=     50.6476 meV
     lambda_tr(   1 )=       0.079770   gamma_tr=       0.286047 meV   omega=     50.6476 meV
     lambda___(   2 )=       0.116414   gamma___=       0.744637 meV   omega=     67.6439 meV
     lambda_tr(   2 )=       0.189858   gamma_tr=       1.214422 meV   omega=     67.6439 meV
     lambda___(   3 )=       0.257550   gamma___=       2.693153 meV   omega=     86.4886 meV
     lambda_tr(   3 )=       0.448956   gamma_tr=       4.694651 meV   omega=     86.4886 meV
     lambda___(   4 )=       0.362700   gamma___=       7.689544 meV   omega=    123.1503 meV
     lambda_tr(   4 )=       0.407901   gamma_tr=       8.647826 meV   omega=    123.1503 meV
     lambda___(   5 )=       0.122464   gamma___=       2.675067 meV   omega=    125.0035 meV
     lambda_tr(   5 )=       0.112248   gamma_tr=       2.451916 meV   omega=    125.0035 meV
     lambda___(   6 )=       0.388755   gamma___=      11.793994 meV   omega=    147.3166 meV
     lambda_tr(   6 )=       0.526218   gamma_tr=      15.964320 meV   omega=    147.3166 meV
     lambda___( tot )=       1.239013
     lambda_tr( tot )=       1.764951
     -------------------------------------------------------------------


     Number of (k,k+q) pairs on the Fermi surface:      125 out of      125


     ismear =     1 iq =      23 coord.:   0.00000  0.80000  0.40000 wt:   0.00800 Temp:  200.000K
     -------------------------------------------------------------------
     lambda___(   1 )=       0.228524   gamma___=       1.474820 meV   omega=     67.9458 meV
     lambda_tr(   1 )=      -0.024657   gamma_tr=      -0.159129 meV   omega=     67.9458 meV
     lambda___(   2 )=       0.276393   gamma___=       2.674808 meV   omega=     83.2036 meV
     lambda_tr(   2 )=       0.489697   gamma_tr=       4.739071 meV   omega=     83.2036 meV
     lambda___(   3 )=       0.533947   gamma___=       9.837459 meV   omega=    114.8026 meV
     lambda_tr(   3 )=       0.514598   gamma_tr=       9.480971 meV   omega=    114.8026 meV
     lambda___(   4 )=       0.248089   gamma___=       4.862094 meV   omega=    118.4042 meV
     lambda_tr(   4 )=       0.365772   gamma_tr=       7.168463 meV   omega=    118.4042 meV
     lambda___(   5 )=       0.210781   gamma___=       4.584004 meV   omega=    124.7287 meV
     lambda_tr(   5 )=       0.339259   gamma_tr=       7.378113 meV   omega=    124.7287 meV
     lambda___(   6 )=       0.198640   gamma___=       4.887920 meV   omega=    132.6745 meV
     lambda_tr(   6 )=       0.099140   gamma_tr=       2.439517 meV   omega=    132.6745 meV
     lambda___( tot )=       1.696374
     lambda_tr( tot )=       1.783808
     -------------------------------------------------------------------


     Number of (k,k+q) pairs on the Fermi surface:      125 out of      125


     ismear =     1 iq =      23 coord.:   0.00000  0.80000  0.40000 wt:   0.00800 Temp:  300.000K
     -------------------------------------------------------------------
     lambda___(   1 )=       0.227306   gamma___=       1.466960 meV   omega=     67.9458 meV
     lambda_tr(   1 )=      -0.027146   gamma_tr=      -0.175194 meV   omega=     67.9458 meV
     lambda___(   2 )=       0.281044   gamma___=       2.719815 meV   omega=     83.2036 meV
     lambda_tr(   2 )=       0.493965   gamma_tr=       4.780370 meV   omega=     83.2036 meV
     lambda___(   3 )=       0.541920   gamma___=       9.984365 meV   omega=    114.8026 meV
     lambda_tr(   3 )=       0.520006   gamma_tr=       9.580616 meV   omega=    114.8026 meV
     lambda___(   4 )=       0.257713   gamma___=       5.050711 meV   omega=    118.4042 meV
     lambda_tr(   4 )=       0.374313   gamma_tr=       7.335856 meV   omega=    118.4042 meV
     lambda___(   5 )=       0.216502   gamma___=       4.708435 meV   omega=    124.7287 meV
     lambda_tr(   5 )=       0.342710   gamma_tr=       7.453172 meV   omega=    124.7287 meV
     lambda___(   6 )=       0.201037   gamma___=       4.946892 meV   omega=    132.6745 meV
     lambda_tr(   6 )=       0.101286   gamma_tr=       2.492321 meV   omega=    132.6745 meV
     lambda___( tot )=       1.725522
     lambda_tr( tot )=       1.805133
     -------------------------------------------------------------------


     Number of (k,k+q) pairs on the Fermi surface:      125 out of      125


     ismear =     1 iq =      24 coord.:   0.00000  0.80000  0.60000 wt:   0.00800 Temp:  200.000K
     -------------------------------------------------------------------
     lambda___(   1 )=       0.103627   gamma___=       0.607078 meV   omega=     64.7358 meV
     lambda_tr(   1 )=      -0.406089   gamma_tr=      -2.378992 meV   omega=     64.7358 meV
     lambda___(   2 )=       0.140976   gamma___=       0.959915 meV   omega=     69.7916 meV
     lambda_tr(   2 )=      -0.085054   gamma_tr=      -0.579141 meV   omega=     69.7916 meV
     lambda___(   3 )=       0.220911   gamma___=       3.033440 meV   omega=     99.1101 meV
     lambda_tr(   3 )=       0.061309   gamma_tr=       0.841861 meV   omega=     99.1101 meV
[...]
       20        7     -0.5988    242.1313    655.5353      1.4643     -0.3171
       21        7     -4.1467    -59.8402    306.0429      1.0521     -0.0495
       22        7     -2.7314    -17.8032    164.7948      0.9206      0.0863
       23        7     -0.7462    175.7788    654.6227      1.5738     -0.3646
       24        7     -0.5988    242.1313    655.5353      1.4643     -0.3171
       25        7     -2.0229   -131.6226    347.0654      0.9634      0.0380
       26        7     -4.1467    -59.8402    306.0429      1.0521     -0.0495
       27        7     -2.0229   -131.6226    347.0654      0.9634      0.0380
       28        7     -0.5988    242.1313    655.5353      1.4643     -0.3171
       29        7     -0.7462    175.7788    654.6227      1.5738     -0.3646
       30        7     -2.7314    -17.8032    164.7948      0.9206      0.0863
       31        7     -2.0229   -131.6226    347.0654      0.9634      0.0380
       32        7     -4.1467    -56.2069    308.1388      1.0512     -0.0487
       33        7     -2.7314    -17.8181    161.7715      0.9214      0.0853
       34        7     -0.7462    174.3541    657.2404      1.5961     -0.3735
       35        7     -0.5988    244.9881    649.7556      1.4616     -0.3158
       36        7     -0.5988    242.1313    655.5353      1.4643     -0.3171
       37        7     -2.7314    -17.8181    161.7715      0.9214      0.0853
       38        7     -0.5988    244.2007    648.1943      1.4589     -0.3145
       39        7     -0.1318    399.7448    498.4038      1.1639     -0.1409
       40        7     -0.1318    396.0447    493.9355      1.1582     -0.1366
       41        7     -0.7462    175.7788    654.6227      1.5738     -0.3646
       42        7     -0.7462    174.3541    657.2404      1.5961     -0.3735
       43        7     -0.1318    399.7448    498.4038      1.1639     -0.1409
       44        7      2.0742    227.0106    286.1348      1.2085     -0.1726
       45        7     -0.1318    396.0447    493.9355      1.1582     -0.1366
       46        7     -2.7314    -17.8032    164.7948      0.9206      0.0863
       47        7     -0.5988    244.9881    649.7556      1.4616     -0.3158
       48        7     -0.1318    396.0447    493.9355      1.1582     -0.1366
       49        7     -0.1318    396.0447    493.9355      1.1582     -0.1366
       50        7     -0.5988    244.9881    649.7556      1.4616     -0.3158
       51        7     -3.4319    -33.8360    340.0602      1.1208     -0.1078
       52        7     -0.5988    242.1313    655.5353      1.4643     -0.3171
       53        7      2.6756    304.1110    143.7571      0.9969      0.0031
       54        7      2.0742    229.7574    281.7235      1.2012     -0.1675
       55        7     -0.7462    175.7788    654.6227      1.5738     -0.3646
       56        7     -0.5988    242.1313    655.5353      1.4643     -0.3171
       57        7     -2.7314    -17.8181    161.7715      0.9214      0.0853
       58        7     -0.5988    244.2007    648.1943      1.4589     -0.3145
       59        7     -0.1318    399.7448    498.4039      1.1639     -0.1409
       60        7     -0.1318    396.0447    493.9355      1.1582     -0.1366
       61        7      2.6756    304.1110    143.7571      0.9969      0.0031
       62        7     -0.5988    244.2007    648.1943      1.4589     -0.3145
       63        7     -3.4319    -27.8162    341.1749      1.1241     -0.1104
       64        7     -0.7462    176.9116    650.3489      1.5697     -0.3629
       65        7      2.0742    227.0106    286.1348      1.2085     -0.1726
       66        7      2.0742    229.7574    281.7235      1.2012     -0.1675
       67        7     -0.1318    399.7448    498.4039      1.1639     -0.1409
       68        7     -0.7462    176.9116    650.3489      1.5697     -0.3629
       69        7     -0.7462    176.9116    650.3489      1.5697     -0.3629
       70        7     -0.1318    399.7448    498.4039      1.1639     -0.1409
       71        7     -0.7462    175.7788    654.6227      1.5738     -0.3646
       72        7     -0.1318    396.0447    493.9355      1.1582     -0.1366
       73        7      2.0742    227.0106    286.1348      1.2085     -0.1726
       74        7     -0.1318    399.7448    498.4039      1.1639     -0.1409
       75        7     -0.7462    174.3542    657.2404      1.5961     -0.3735
       76        7     -3.4319    -33.8360    340.0602      1.1208     -0.1078
       77        7     -0.7462    175.7788    654.6227      1.5738     -0.3646
       78        7      2.0742    229.7574    281.7235      1.2012     -0.1675
       79        7      2.6756    304.1110    143.7571      0.9969      0.0031
       80        7     -0.5988    242.1313    655.5353      1.4643     -0.3171
       81        7     -0.7462    175.7788    654.6227      1.5738     -0.3646
       82        7     -0.7462    174.3541    657.2404      1.5961     -0.3735
       83        7     -0.1318    399.7448    498.4038      1.1639     -0.1409
       84        7      2.0742    227.0106    286.1348      1.2085     -0.1726
       85        7     -0.1318    396.0447    493.9355      1.1582     -0.1366
       86        7      2.0742    229.7574    281.7235      1.2012     -0.1675
       87        7     -0.1318    399.7448    498.4038      1.1639     -0.1409
       88        7     -0.7462    176.9116    650.3489      1.5697     -0.3629
       89        7     -0.7462    176.9116    650.3489      1.5697     -0.3629
       90        7     -0.1318    399.7448    498.4038      1.1639     -0.1409
       91        7      2.6756    304.1110    143.7571      0.9969      0.0031
       92        7      2.0742    227.0106    286.1348      1.2085     -0.1726
       93        7     -0.7462    176.9116    650.3489      1.5697     -0.3629
       94        7     -3.4319    -27.8162    341.1749      1.1241     -0.1104
       95        7     -0.5988    244.2007    648.1943      1.4589     -0.3145
       96        7     -0.5988    242.1313    655.5353      1.4643     -0.3171
       97        7     -0.1318    396.0447    493.9355      1.1582     -0.1366
       98        7     -0.1318    399.7448    498.4038      1.1639     -0.1409
       99        7     -0.5988    244.2007    648.1943      1.4589     -0.3145
      100        7     -2.7314    -17.8181    161.7715      0.9214      0.0853
      101        7     -4.1467    -59.8402    306.0429      1.0521     -0.0495
      102        7     -2.7314    -17.8032    164.7948      0.9206      0.0863
      103        7     -0.7462    175.7788    654.6227      1.5738     -0.3646
      104        7     -0.5988    242.1313    655.5353      1.4643     -0.3171
      105        7     -2.0229   -131.6226    347.0654      0.9634      0.0380
      106        7     -2.7314    -17.8032    164.7948      0.9206      0.0863
      107        7     -0.5988    244.9881    649.7556      1.4616     -0.3158
      108        7     -0.1318    396.0447    493.9355      1.1582     -0.1366
      109        7     -0.1318    396.0447    493.9355      1.1582     -0.1366
      110        7     -0.5988    244.9881    649.7556      1.4616     -0.3158
      111        7     -0.7462    175.7788    654.6227      1.5738     -0.3646
      112        7     -0.1318    396.0447    493.9355      1.1582     -0.1366
      113        7      2.0742    227.0106    286.1348      1.2085     -0.1726
      114        7     -0.1318    399.7448    498.4039      1.1639     -0.1409
      115        7     -0.7462    174.3542    657.2404      1.5961     -0.3735
      116        7     -0.5988    242.1313    655.5353      1.4643     -0.3171
      117        7     -0.1318    396.0447    493.9355      1.1582     -0.1366
      118        7     -0.1318    399.7448    498.4039      1.1639     -0.1409
      119        7     -0.5988    244.2007    648.1943      1.4589     -0.3145
      120        7     -2.7314    -17.8181    161.7715      0.9214      0.0853
      121        7     -2.0229   -131.6226    347.0654      0.9634      0.0380
      122        7     -0.5988    244.9881    649.7556      1.4616     -0.3158
      123        7     -0.7462    174.3542    657.2404      1.5961     -0.3735
      124        7     -2.7314    -17.8181    161.7715      0.9214      0.0853
      125        7     -4.1467    -56.2069    308.1388      1.0512     -0.0487
  
        1        8     -3.6303    -38.9630    142.7032      0.9888      0.0114
        2        8     -1.4547    -12.9072    696.5316      1.8087     -0.4471
        3        8      0.8145    289.5629    205.5896      1.0398     -0.0383
        4        8      0.8145    289.5629    205.5896      1.0398     -0.0383
        5        8     -1.4547    -12.9072    696.5316      1.8087     -0.4471
        6        8     -1.4547    -12.9072    696.5316      1.8087     -0.4471
        7        8     -2.0229   -131.6226    347.0654      0.9634      0.0380
        8        8     -0.5380    245.0897    692.5998      1.4690     -0.3193
        9        8      0.5984    265.0100    211.8136      1.0025     -0.0025
       10        8     -0.1018    410.6746    458.5789      1.0940     -0.0860
       11        8      0.8145    289.5629    205.5896      1.0398     -0.0383
       12        8     -0.5380    245.0897    692.5998      1.4690     -0.3193
       13        8      2.6756    304.1110    143.7571      0.9969      0.0031
       14        8      2.1485    263.7669    280.0332      1.1864     -0.1571
       15        8      0.5984    265.0100    211.8136      1.0025     -0.0025
       16        8      0.8145    289.5629    205.5896      1.0398     -0.0383
       17        8      0.5984    265.0100    211.8136      1.0025     -0.0025
       18        8      2.1485    263.7669    280.0332      1.1864     -0.1571
       19        8      2.6756    304.1110    143.7571      0.9969      0.0031
       20        8     -0.5380    245.0897    692.5998      1.4690     -0.3193
       21        8     -1.4547    -12.9072    696.5316      1.8087     -0.4471
       22        8     -0.1018    410.6746    458.5790      1.0940     -0.0860
       23        8      0.5984    265.0100    211.8136      1.0025     -0.0025
       24        8     -0.5380    245.0897    692.5998      1.4690     -0.3193
       25        8     -2.0229   -131.6226    347.0654      0.9634      0.0380
       26        8     -1.4547    -12.9072    696.5316      1.8087     -0.4471
       27        8     -2.0229   -131.6226    347.0654      0.9634      0.0380
       28        8     -0.5380    245.0897    692.5998      1.4690     -0.3193
       29        8      0.5984    265.0100    211.8136      1.0025     -0.0025
       30        8     -0.1018    410.6746    458.5789      1.0940     -0.0860
       31        8     -2.0229   -131.6226    347.0654      0.9634      0.0380
       32        8     -1.4547    -17.1092    684.6535      1.7794     -0.4380
       33        8     -0.1018    410.3342    459.6466      1.0936     -0.0856
       34        8      0.5984    261.7799    211.4091      1.0025     -0.0025
       35        8     -0.5380    242.0629    687.6036      1.4726     -0.3209
       36        8     -0.5380    245.0897    692.5998      1.4690     -0.3193
       37        8     -0.1018    410.3342    459.6466      1.0936     -0.0856
       38        8     -0.5380    243.9440    693.4342      1.4702     -0.3198
       39        8      1.7907    206.5120    212.0036      1.0510     -0.0486
       40        8      1.7907    204.9454    213.1715      1.0537     -0.0509
       41        8      0.5984    265.0100    211.8136      1.0025     -0.0025
       42        8      0.5984    261.7799    211.4090      1.0025     -0.0025
       43        8      1.7907    206.5120    212.0036      1.0510     -0.0486
       44        8      2.1485    261.4264    286.2784      1.1961     -0.1639
       45        8      1.7907    204.9454    213.1715      1.0537     -0.0509
       46        8     -0.1018    410.6746    458.5790      1.0940     -0.0860
       47        8     -0.5380    242.0629    687.6036      1.4726     -0.3209
       48        8      1.7907    204.9454    213.1715      1.0537     -0.0509
       49        8      1.7907    204.9454    213.1715      1.0537     -0.0509
       50        8     -0.5380    242.0629    687.6036      1.4726     -0.3209
       51        8      0.8145    289.5629    205.5896      1.0398     -0.0383
       52        8     -0.5380    245.0897    692.5998      1.4690     -0.3193
       53        8      2.6756    304.1110    143.7571      0.9969      0.0031
       54        8      2.1485    263.7669    280.0332      1.1864     -0.1571
       55        8      0.5984    265.0100    211.8136      1.0025     -0.0025
       56        8     -0.5380    245.0897    692.5998      1.4690     -0.3193
       57        8     -0.1018    410.3342    459.6466      1.0936     -0.0856
       58        8     -0.5380    243.9440    693.4342      1.4702     -0.3198
       59        8      1.7907    206.5120    212.0036      1.0510     -0.0486
       60        8      1.7907    204.9454    213.1715      1.0537     -0.0509
       61        8      2.6756    304.1110    143.7571      0.9969      0.0031
       62        8     -0.5380    243.9440    693.4342      1.4702     -0.3198
       63        8      0.8145    287.4118    203.3264      1.0362     -0.0349
       64        8      0.5984    263.7687    223.1031      1.0105     -0.0104
       65        8      2.1485    261.4264    286.2784      1.1961     -0.1639
       66        8      2.1485    263.7669    280.0332      1.1864     -0.1571
       67        8      1.7907    206.5120    212.0036      1.0510     -0.0486
       68        8      0.5984    263.7687    223.1031      1.0105     -0.0104
       69        8      0.5984    263.7688    223.1031      1.0105     -0.0104
       70        8      1.7907    206.5120    212.0036      1.0510     -0.0486
       71        8      0.5984    265.0100    211.8136      1.0025     -0.0025
       72        8      1.7907    204.9454    213.1715      1.0537     -0.0509
       73        8      2.1485    261.4264    286.2784      1.1961     -0.1639
       74        8      1.7907    206.5120    212.0036      1.0510     -0.0486
       75        8      0.5984    261.7799    211.4091      1.0025     -0.0025
       76        8      0.8145    289.5629    205.5896      1.0398     -0.0383
       77        8      0.5984    265.0100    211.8136      1.0025     -0.0025
       78        8      2.1485    263.7669    280.0332      1.1864     -0.1571
       79        8      2.6756    304.1110    143.7571      0.9969      0.0031
       80        8     -0.5380    245.0897    692.5998      1.4690     -0.3193
       81        8      0.5984    265.0100    211.8136      1.0025     -0.0025
       82        8      0.5984    261.7799    211.4090      1.0025     -0.0025
       83        8      1.7907    206.5120    212.0036      1.0510     -0.0486
       84        8      2.1485    261.4264    286.2784      1.1961     -0.1639
       85        8      1.7907    204.9454    213.1715      1.0537     -0.0509
       86        8      2.1485    263.7669    280.0332      1.1864     -0.1571
       87        8      1.7907    206.5120    212.0036      1.0510     -0.0486
       88        8      0.5984    263.7687    223.1031      1.0105     -0.0104
       89        8      0.5984    263.7688    223.1031      1.0105     -0.0104
       90        8      1.7907    206.5120    212.0036      1.0510     -0.0486
       91        8      2.6756    304.1110    143.7571      0.9969      0.0031
       92        8      2.1485    261.4264    286.2784      1.1961     -0.1639
       93        8      0.5984    263.7687    223.1031      1.0105     -0.0104
       94        8      0.8145    287.4118    203.3264      1.0362     -0.0349
       95        8     -0.5380    243.9440    693.4342      1.4702     -0.3198
       96        8     -0.5380    245.0897    692.5998      1.4690     -0.3193
       97        8      1.7907    204.9454    213.1715      1.0537     -0.0509
       98        8      1.7907    206.5120    212.0036      1.0510     -0.0486
       99        8     -0.5380    243.9440    693.4342      1.4702     -0.3198
      100        8     -0.1018    410.3342    459.6466      1.0936     -0.0856
      101        8     -1.4547    -12.9072    696.5316      1.8087     -0.4471
      102        8     -0.1018    410.6746    458.5790      1.0940     -0.0860
      103        8      0.5984    265.0100    211.8136      1.0025     -0.0025
      104        8     -0.5380    245.0897    692.5998      1.4690     -0.3193
      105        8     -2.0229   -131.6226    347.0654      0.9634      0.0380
      106        8     -0.1018    410.6746    458.5790      1.0940     -0.0860
      107        8     -0.5380    242.0629    687.6036      1.4726     -0.3209
      108        8      1.7907    204.9454    213.1715      1.0537     -0.0509
      109        8      1.7907    204.9454    213.1715      1.0537     -0.0509
      110        8     -0.5380    242.0629    687.6036      1.4726     -0.3209
      111        8      0.5984    265.0100    211.8136      1.0025     -0.0025
      112        8      1.7907    204.9454    213.1715      1.0537     -0.0509
      113        8      2.1485    261.4264    286.2784      1.1961     -0.1639
      114        8      1.7907    206.5120    212.0036      1.0510     -0.0486
      115        8      0.5984    261.7799    211.4091      1.0025     -0.0025
      116        8     -0.5380    245.0897    692.5998      1.4690     -0.3193
      117        8      1.7907    204.9454    213.1715      1.0537     -0.0509
      118        8      1.7907    206.5120    212.0036      1.0510     -0.0486
      119        8     -0.5380    243.9440    693.4342      1.4702     -0.3198
      120        8     -0.1018    410.3342    459.6466      1.0936     -0.0856
      121        8     -2.0229   -131.6226    347.0654      0.9634      0.0380
      122        8     -0.5380    242.0629    687.6036      1.4726     -0.3209
      123        8      0.5984    261.7799    211.4090      1.0025     -0.0025
      124        8     -0.1018    410.3342    459.6466      1.0936     -0.0856
      125        8     -1.4547    -17.1091    684.6535      1.7794     -0.4380
  
     ===================================================================
     Memory usage:  VmHWM =        65Mb
                   VmPeak =      2625Mb
     ===================================================================


     Unfolding on the coarse grid
     elphon_wrap  :      0.01s CPU      0.01s WALL (       1 calls)

     INITIALIZATION: 




     Electron-Phonon interpolation
     ephwann      :      5.05s CPU      5.18s WALL (       1 calls)
     ep-interp    :      4.77s CPU      4.87s WALL (     125 calls)
     PH SELF-ENER :      0.39s CPU      0.40s WALL (     250 calls)

     wigner_seitz :      0.22s CPU      0.23s WALL (       1 calls)
     rgd_blk_fine :      0.68s CPU      0.70s WALL (   15500 calls)
     DynW2B       :      0.01s CPU      0.01s WALL (     125 calls)
     HamW2B       :      0.37s CPU      0.38s WALL (   15875 calls)
     vmeW2B       :      1.63s CPU      1.68s WALL (   31375 calls)
     ephW2Bp      :      0.28s CPU      0.30s WALL (     125 calls)
     ephW2B       :      0.58s CPU      0.60s WALL (   15625 calls)
     selfen_elec  :      0.60s CPU      0.60s WALL (     125 calls)
     selfen_phon  :      0.42s CPU      0.42s WALL (     125 calls)


     MPI routines


     Total program execution
     EPW          :      5.06s CPU      5.18s WALL

     ===============================================================================
     The functionality-dependent EPW.bib file was created with suggested citations. 
     Please consider citing the papers listed in EPW.bib.                           
     ===============================================================================
                                                                                    
