                                                                                      
                                       ``:oss/                                        
                           `.+s+.     .+ys--yh+     `./ss+.                           
                          -sh//yy+`   +yy   +yy    -+h+-oyy                           
                          -yh- .oyy/.-sh.   .syo-.:sy-  /yh                           
                 `.-.`    `yh+   -oyyyo.     `/syys:    oys      `.`                  
               `/+ssys+-` `sh+      `                   oys`   .:osyo`                
               -yh- ./syyooyo`                          .sys+/oyo--yh/                
               `yy+    .-:-.                             `-/+/:`  -sh-                
                /yh.                                              oys                 
          ``..---hho---------`   .---------..`      `.-----.`    -hd+---.             
       `./osmNMMMMMMMMMMMMMMMs. +NNMMMMMMMMNNmh+.   yNMMMMMNm-  oNMMMMMNmo++:`        
       +sy--/sdMMMhyyyyyyyNMMh- .oyNMMmyyyyyhNMMm+` -yMMMdyyo:` .oyyNMMNhs+syy`       
       -yy/   /MMM+.`-+/``mMMy-   `mMMh:`````.dMMN:` `MMMy-`-dhhy```mMMy:``+hs        
        -yy+` /MMMo:-mMM+`-oo/.    mMMh:     `dMMN/`  dMMm:`dMMMMy..MMMo-.+yo`        
         .sys`/MMMMNNMMMs-         mMMmyooooymMMNo:   oMMM/sMMMMMM++MMN//oh:          
          `sh+/MMMhyyMMMs- `-`     mMMMMMMMMMNmy+-`   -MMMhMMMsmMMmdMMd/yy+           
    `-/+++oyy-/MMM+.`/hh/.`mNm:`   mMMd+/////:-.`      NMMMMMd/:NMMMMMy:/yyo/:.`      
   +os+//:-..-oMMMo:--:::-/MMMo. .-mMMd+---`           hMMMMN+. oMMMMMo. `-+osyso:`   
   syo     `mNMMMMMNNNNNNNNMMMo.oNNMMMMMNNNN:`         +MMMMs:`  dMMMN/`     ``:syo   
   /yh`     :syyyyyyyyyyyyyyyy+.`+syyyyyyyyo:`         .oyys:`   .oyys:`        +yh   
   -yh-        ````````````````    `````````              ``        ``          oys   
   -+h/------------------------::::::::://////++++++++++++++++++++++///////::::/yd:   
   shdddddddddddddddddddddddddddddhhhhhhhhyyyyyssssssssssssssssyyyyyyyhhhhhhhddddh`   
                                                                                      
  S. Ponce, E. R. Margine, C. Verdi, and F. Giustino,                                 
                                                Comput. Phys. Commun. 209, 116 (2016) 
                                                                                      

     Program EPW v.5.3.1 starts on 20Jul2021 at 15:19:43 

     This program is part of the open-source Quantum ESPRESSO suite
     for quantum simulation of materials; please cite
         "P. Giannozzi et al., J. Phys.:Condens. Matter 21 395502 (2009);
         "P. Giannozzi et al., J. Phys.:Condens. Matter 29 465901 (2017);
          URL http://www.quantum-espresso.org", 
     in publications or presentations arising from this work. More details at
     http://www.quantum-espresso.org/quote

     Parallel version (MPI), running on     1 processors

     MPI processes distributed on     1 nodes
     Reading input from epw.transport.elec.in

     WARNING: Mismatch between temps(:) and nstemp

     WARNING: Using supplied temperature list and ignoring nstemp
                      
     ------------------------------------------------------------------------ 
                   RESTART - RESTART - RESTART - RESTART                         
     Restart is done without reading PWSCF save file.                  
     Be aware that some consistency checks are therefore not done.                  
     ------------------------------------------------------------------------ 
                      

     --                                                                         

     bravais-lattice index     =            0
     lattice parameter (a_0)   =       0.0000  a.u.
     unit-cell volume          =       0.0000 (a.u.)^3
     number of atoms/cell      =            0
     number of atomic types    =            0
     kinetic-energy cut-off    =       0.0000  Ry
     charge density cut-off    =       0.0000  Ry
     Exchange-correlation= not set
                           (  -1  -1  -1  -1  -1  -1  -1)


     celldm(1)=    0.00000  celldm(2)=    0.00000  celldm(3)=    0.00000
     celldm(4)=    0.00000  celldm(5)=    0.00000  celldm(6)=    0.00000

     crystal axes: (cart. coord. in units of a_0)
               a(1) = (  0.0000  0.0000  0.0000 )  
               a(2) = (  0.0000  0.0000  0.0000 )  
               a(3) = (  0.0000  0.0000  0.0000 )  

     reciprocal axes: (cart. coord. in units 2 pi/a_0)
               b(1) = (  0.0000  0.0000  0.0000 )  
               b(2) = (  0.0000  0.0000  0.0000 )  
               b(3) = (  0.0000  0.0000  0.0000 )  


     Atoms inside the unit cell: 

   Cartesian axes

     site n.  atom      mass           positions (a_0 units)

 
     No symmetry!

     G cutoff =    0.0000  (      0 G-vectors)     FFT grid: (  0,  0,  0)
     number of k points=    0
                       cart. coord. in units 2pi/a_0
     EPW          :      0.00s CPU      0.00s WALL

     EPW          :      0.00s CPU      0.00s WALL


     -------------------------------------------------------------------
     Using bn.ukk from disk
     -------------------------------------------------------------------

     Symmetries of Bravais lattice:  48
     Symmetries of crystal:          24

     Do not need to read .epb files; read .fmt files


     Band disentanglement is used: nbndsub =    8

     Computes the analytic long-range interaction for polar materials [lpolar]
      
     Construct the Wigner-Seitz cell using Wannier centers and atomic positions 
     Number of WS vectors for electrons      123
     Number of WS vectors for phonons       25
     Number of WS vectors for electron-phonon       25
     Maximum number of cores for efficient parallelization       50

     Reading Hamiltonian, Dynamical matrix and EP vertex in Wann rep from file


     Reading interatomic force constants

     Read Z* and epsilon
     IFC last    0.0091940
      Imposed simple ASR

     Finished reading ifcs


     Finished reading Wann rep data from file

     ===================================================================
     Memory usage:  VmHWM =        61Mb
                   VmPeak =      2613Mb
     ===================================================================
     
     Using uniform q-mesh:   15  15  15
     Size of q point mesh for interpolation:       3375
     Using uniform k-mesh:   15  15  15
     Size of k point mesh for interpolation:       6750
     Max number of k points per pool:             6750

     Fermi energy coarse grid =  10.921574 eV

     ===================================================================

     Fermi energy is read from the input file: Ef =  15.400000 eV

     ===================================================================

              ibndmin =     5  ebndmin =    15.373 eV
              ibndmax =     5  ebndmax =    15.747 eV


     Number of ep-matrix elements per pool :        20250 ~=  158.20 Kb (@ 8 bytes/ DP)

     File ./Fepmatkqcb1/bn.epmatkqcb1_0 deleted, as requested

     File ./Fsparsecb/sparsecb_0 deleted, as requested
      
     A selecq.fmt file was found but re-created because selecqread == .FALSE. 
     Number selected, total            100           1697
     We only need to compute      189 q-points
      
     nrr_g_3 =      3
     Skipping IO for epmatwp_3:  F
     Valence band maximum    =  10.921574 eV
     Conduction band minimum =  15.373135 eV

     Temperature  200.000 K
     Mobility CB Fermi level =  15.361083 eV

     Temperature  300.000 K
     Mobility CB Fermi level =  15.355056 eV

     Temperature  400.000 K
     Mobility CB Fermi level =  15.349019 eV

     ===================================================================
     Scattering rate for IBTE
     ===================================================================

     Restart and restart_step inputs deactivated (restart point at every q-points).
     No intermediate mobility will be shown.

     Fermi Surface thickness =   0.400000 eV
     This is computed with respect to the fine Fermi level  15.400000 eV
     Only states between  15.000000 eV and  15.800000 eV will be included

     Save matrix elements larger than threshold:   0.877914951989E-23
      
 iqq =            1  ind_totcb =                     66
 iqq =            2  ind_totcb =                     84
 iqq =            3  ind_totcb =                    102
 iqq =            4  ind_totcb =                    120
 iqq =            5  ind_totcb =                    141
 iqq =            6  ind_totcb =                    147
 iqq =            7  ind_totcb =                    150
 iqq =            8  ind_totcb =                    156
 iqq =            9  ind_totcb =                    162
 iqq =           10  ind_totcb =                    165
 iqq =           11  ind_totcb =                    171
 iqq =           12  ind_totcb =                    177
 iqq =           13  ind_totcb =                    183
 iqq =           14  ind_totcb =                    207
 iqq =           15  ind_totcb =                    225
 iqq =           16  ind_totcb =                    243
 iqq =           17  ind_totcb =                    267
 iqq =           18  ind_totcb =                    273
 iqq =           19  ind_totcb =                    279
 iqq =           20  ind_totcb =                    285
 iqq =           21  ind_totcb =                    288
 iqq =           22  ind_totcb =                    294
 iqq =           23  ind_totcb =                    300
 iqq =           24  ind_totcb =                    318
 iqq =           25  ind_totcb =                    321
 iqq =           26  ind_totcb =                    327
 iqq =           27  ind_totcb =                    348
 iqq =           28  ind_totcb =                    366
 iqq =           29  ind_totcb =                    387
 iqq =           30  ind_totcb =                    393
 iqq =           31  ind_totcb =                    396
 iqq =           32  ind_totcb =                    417
 iqq =           33  ind_totcb =                    435
 iqq =           34  ind_totcb =                    438
 iqq =           35  ind_totcb =                    444
 iqq =           36  ind_totcb =                    450
 iqq =           37  ind_totcb =                    453
 iqq =           38  ind_totcb =                    459
 iqq =           39  ind_totcb =                    465
 iqq =           40  ind_totcb =                    477
 iqq =           41  ind_totcb =                    483
 iqq =           42  ind_totcb =                    495
 iqq =           43  ind_totcb =                    513
 iqq =           44  ind_totcb =                    525
 iqq =           45  ind_totcb =                    531
 iqq =           46  ind_totcb =                    543
 iqq =           47  ind_totcb =                    549
 iqq =           48  ind_totcb =                    552
 iqq =           49  ind_totcb =                    558
 iqq =           50  ind_totcb =                    564
 iqq =           51  ind_totcb =                    570
 iqq =           52  ind_totcb =                    576
 iqq =           53  ind_totcb =                    582
 iqq =           54  ind_totcb =                    585
 iqq =           55  ind_totcb =                    591
 iqq =           56  ind_totcb =                    597
 iqq =           57  ind_totcb =                    603
 iqq =           58  ind_totcb =                    609
 iqq =           59  ind_totcb =                    615
 iqq =           60  ind_totcb =                    621
 iqq =           61  ind_totcb =                    627
 iqq =           62  ind_totcb =                    633
 iqq =           63  ind_totcb =                    639
 iqq =           64  ind_totcb =                    642
 iqq =           65  ind_totcb =                    645
 iqq =           66  ind_totcb =                    651
 iqq =           67  ind_totcb =                    657
 iqq =           68  ind_totcb =                    663
 iqq =           69  ind_totcb =                    669
 iqq =           70  ind_totcb =                    675
 iqq =           71  ind_totcb =                    681
 iqq =           72  ind_totcb =                    687
 iqq =           73  ind_totcb =                    693
 iqq =           74  ind_totcb =                    699
 iqq =           75  ind_totcb =                    711
 iqq =           76  ind_totcb =                    717
 iqq =           77  ind_totcb =                    723
 iqq =           78  ind_totcb =                    729
 iqq =           79  ind_totcb =                    735
 iqq =           80  ind_totcb =                    741
 iqq =           81  ind_totcb =                    747
 iqq =           82  ind_totcb =                    753
 iqq =           83  ind_totcb =                    765
 iqq =           84  ind_totcb =                    771
 iqq =           85  ind_totcb =                    777
 iqq =           86  ind_totcb =                    801
 iqq =           87  ind_totcb =                    819
 iqq =           88  ind_totcb =                    825
 iqq =           89  ind_totcb =                    837
 iqq =           90  ind_totcb =                    843
 iqq =           91  ind_totcb =                    849
 iqq =           92  ind_totcb =                    855
 iqq =           93  ind_totcb =                    861
 iqq =           94  ind_totcb =                    867
 iqq =           95  ind_totcb =                    879
 iqq =           96  ind_totcb =                    903
 iqq =           97  ind_totcb =                    909
 iqq =           98  ind_totcb =                    927
 iqq =           99  ind_totcb =                    945
     Progression iq (fine) =        100/       189
 iqq =          100  ind_totcb =                    957
 iqq =          101  ind_totcb =                    969
 iqq =          102  ind_totcb =                    975
 iqq =          103  ind_totcb =                    981
 iqq =          104  ind_totcb =                    987
 iqq =          105  ind_totcb =                    993
 iqq =          106  ind_totcb =                   1005
 iqq =          107  ind_totcb =                   1023
 iqq =          108  ind_totcb =                   1035
 iqq =          109  ind_totcb =                   1053
 iqq =          110  ind_totcb =                   1077
 iqq =          111  ind_totcb =                   1083
 iqq =          112  ind_totcb =                   1095
 iqq =          113  ind_totcb =                   1113
 iqq =          114  ind_totcb =                   1125
 iqq =          115  ind_totcb =                   1131
 iqq =          116  ind_totcb =                   1137
 iqq =          117  ind_totcb =                   1143
 iqq =          118  ind_totcb =                   1149
 iqq =          119  ind_totcb =                   1167
 iqq =          120  ind_totcb =                   1179
 iqq =          121  ind_totcb =                   1191
 iqq =          122  ind_totcb =                   1215
 iqq =          123  ind_totcb =                   1233
 iqq =          124  ind_totcb =                   1239
 iqq =          125  ind_totcb =                   1245
 iqq =          126  ind_totcb =                   1257
 iqq =          127  ind_totcb =                   1263
 iqq =          128  ind_totcb =                   1269
 iqq =          129  ind_totcb =                   1275
 iqq =          130  ind_totcb =                   1281
 iqq =          131  ind_totcb =                   1293
 iqq =          132  ind_totcb =                   1299
 iqq =          133  ind_totcb =                   1305
 iqq =          134  ind_totcb =                   1311
 iqq =          135  ind_totcb =                   1317
 iqq =          136  ind_totcb =                   1329
 iqq =          137  ind_totcb =                   1335
 iqq =          138  ind_totcb =                   1341
 iqq =          139  ind_totcb =                   1347
 iqq =          140  ind_totcb =                   1353
 iqq =          141  ind_totcb =                   1359
 iqq =          142  ind_totcb =                   1365
 iqq =          143  ind_totcb =                   1371
 iqq =          144  ind_totcb =                   1377
 iqq =          145  ind_totcb =                   1389
 iqq =          146  ind_totcb =                   1395
 iqq =          147  ind_totcb =                   1401
 iqq =          148  ind_totcb =                   1407
 iqq =          149  ind_totcb =                   1413
 iqq =          150  ind_totcb =                   1419
 iqq =          151  ind_totcb =                   1422
 iqq =          152  ind_totcb =                   1428
 iqq =          153  ind_totcb =                   1431
 iqq =          154  ind_totcb =                   1437
 iqq =          155  ind_totcb =                   1443
 iqq =          156  ind_totcb =                   1449
 iqq =          157  ind_totcb =                   1455
 iqq =          158  ind_totcb =                   1461
 iqq =          159  ind_totcb =                   1467
 iqq =          160  ind_totcb =                   1473
 iqq =          161  ind_totcb =                   1479
 iqq =          162  ind_totcb =                   1485
 iqq =          163  ind_totcb =                   1491
 iqq =          164  ind_totcb =                   1497
 iqq =          165  ind_totcb =                   1503
 iqq =          166  ind_totcb =                   1506
 iqq =          167  ind_totcb =                   1524
 iqq =          168  ind_totcb =                   1527
 iqq =          169  ind_totcb =                   1533
 iqq =          170  ind_totcb =                   1554
 iqq =          171  ind_totcb =                   1557
 iqq =          172  ind_totcb =                   1563
 iqq =          173  ind_totcb =                   1569
 iqq =          174  ind_totcb =                   1575
 iqq =          175  ind_totcb =                   1587
 iqq =          176  ind_totcb =                   1593
 iqq =          177  ind_totcb =                   1605
 iqq =          178  ind_totcb =                   1623
 iqq =          179  ind_totcb =                   1635
 iqq =          180  ind_totcb =                   1641
 iqq =          181  ind_totcb =                   1653
 iqq =          182  ind_totcb =                   1659
 iqq =          183  ind_totcb =                   1665
 iqq =          184  ind_totcb =                   1671
 iqq =          185  ind_totcb =                   1674
 iqq =          186  ind_totcb =                   1695
 iqq =          187  ind_totcb =                   1701
 iqq =          188  ind_totcb =                   1704
 iqq =          189  ind_totcb =                   1722
      200.000     15.3611       0.999999E+20
      300.000     15.3551       0.999994E+20
      400.000     15.3490       0.100000E+21
      
     epmatkqread automatically changed to .TRUE. as all scattering have been computed.
      
     ===================================================================
     Memory usage:  VmHWM =        98Mb
                   VmPeak =      2768Mb
     ===================================================================

     Number of elements per core       1722
      
     =============================================================================================
     BTE in the self-energy relaxation time approximation (SERTA)
     =============================================================================================

     =============================================================================================
       Temp     Fermi   Elec density  Population SR                  Elec mobility 
        [K]      [eV]     [cm^-3]      [e per cell]                    [cm^2/Vs]
     =============================================================================================

      200.000  15.3611   0.10000E+21   0.12132E-02    0.525206E+03    0.101254E-05   -0.105157E-07
                                                      0.101254E-05    0.525206E+03    0.136829E-05
                                                     -0.105157E-07    0.136829E-05    0.525206E+03
      300.000  15.3551   0.99999E+20   0.82920E-03    0.339362E+03    0.340667E-05    0.274588E-05
                                                      0.340667E-05    0.339362E+03   -0.186869E-05
                                                      0.274588E-05   -0.186869E-05    0.339362E+03
      400.000  15.3490   0.10000E+21   0.61091E-03    0.242791E+03    0.105480E-03    0.105008E-03
                                                      0.105480E-03    0.242791E+03   -0.104381E-03
                                                      0.105008E-03   -0.104381E-03    0.242791E+03
      
     =============================================================================================
     Start solving iterative Boltzmann Transport Equation
     =============================================================================================

     Iteration number:         1

     =============================================================================================
       Temp     Fermi   Elec density  Population SR                  Elec mobility 
        [K]      [eV]     [cm^-3]      [e per cell]                    [cm^2/Vs]
     =============================================================================================

      200.000  15.3611   0.10000E+21   0.26873E-02    0.339165E+03   -0.127192E+00   -0.127192E+00
                                                     -0.127191E+00    0.339165E+03    0.127193E+00
                                                     -0.127193E+00    0.127193E+00    0.339165E+03
      300.000  15.3551   0.99999E+20   0.18228E-02    0.215227E+03   -0.761345E-01   -0.761347E-01
                                                     -0.761341E-01    0.215227E+03    0.761353E-01
                                                     -0.761349E-01    0.761352E-01    0.215227E+03
      400.000  15.3490   0.10000E+21   0.13327E-02    0.152650E+03   -0.541499E-01   -0.541500E-01
                                                     -0.541496E-01    0.152650E+03    0.541504E-01
                                                     -0.541502E-01    0.541503E-01    0.152650E+03

                                                      0.339165E+03    Max error
     Iteration number:         2

     =============================================================================================
       Temp     Fermi   Elec density  Population SR                  Elec mobility 
        [K]      [eV]     [cm^-3]      [e per cell]                    [cm^2/Vs]
     =============================================================================================

      200.000  15.3611   0.10000E+21   0.40690E-02    0.405077E+03   -0.373393E-01   -0.373399E-01
                                                     -0.373391E-01    0.405077E+03    0.373410E-01
                                                     -0.373400E-01    0.373409E-01    0.405077E+03
      300.000  15.3551   0.99999E+20   0.27551E-02    0.260778E+03   -0.240632E-01   -0.240637E-01
                                                     -0.240631E-01    0.260778E+03    0.240643E-01
                                                     -0.240637E-01    0.240643E-01    0.260778E+03
      400.000  15.3490   0.10000E+21   0.20094E-02    0.186551E+03   -0.284177E-01   -0.284180E-01
                                                     -0.284176E-01    0.186551E+03    0.284185E-01
                                                     -0.284181E-01    0.284185E-01    0.186551E+03

                                                      0.659122E+02    Max error
     Iteration number:         3

     =============================================================================================
       Temp     Fermi   Elec density  Population SR                  Elec mobility 
        [K]      [eV]     [cm^-3]      [e per cell]                    [cm^2/Vs]
     =============================================================================================

      200.000  15.3611   0.10000E+21   0.54833E-02    0.381725E+03   -0.850895E-01   -0.850900E-01
                                                     -0.850891E-01    0.381725E+03    0.850910E-01
                                                     -0.850902E-01    0.850909E-01    0.381725E+03
      300.000  15.3551   0.99999E+20   0.37089E-02    0.244061E+03   -0.529652E-01   -0.529655E-01
                                                     -0.529649E-01    0.244061E+03    0.529662E-01
                                                     -0.529656E-01    0.529661E-01    0.244061E+03
      400.000  15.3490   0.10000E+21   0.26996E-02    0.173796E+03   -0.435417E-01   -0.435419E-01
                                                     -0.435415E-01    0.173796E+03    0.435424E-01
                                                     -0.435420E-01    0.435423E-01    0.173796E+03

                                                      0.233521E+02    Max error
     Iteration number:         4

     =============================================================================================
       Temp     Fermi   Elec density  Population SR                  Elec mobility 
        [K]      [eV]     [cm^-3]      [e per cell]                    [cm^2/Vs]
     =============================================================================================

      200.000  15.3611   0.10000E+21   0.68860E-02    0.389999E+03   -0.625320E-01   -0.625326E-01
                                                     -0.625317E-01    0.389999E+03    0.625336E-01
                                                     -0.625327E-01    0.625335E-01    0.389999E+03
      300.000  15.3551   0.99999E+20   0.46540E-02    0.250196E+03   -0.386788E-01   -0.386792E-01
                                                     -0.386786E-01    0.250196E+03    0.386798E-01
                                                     -0.386792E-01    0.386798E-01    0.250196E+03
      400.000  15.3490   0.10000E+21   0.33818E-02    0.178596E+03   -0.354487E-01   -0.354489E-01
                                                     -0.354485E-01    0.178596E+03    0.354494E-01
                                                     -0.354490E-01    0.354494E-01    0.178596E+03

                                                      0.827345E+01    Max error
     Iteration number:         5

     =============================================================================================
       Temp     Fermi   Elec density  Population SR                  Elec mobility 
        [K]      [eV]     [cm^-3]      [e per cell]                    [cm^2/Vs]
     =============================================================================================

      200.000  15.3611   0.10000E+21   0.82928E-02    0.387068E+03   -0.725211E-01   -0.725217E-01
                                                     -0.725207E-01    0.387068E+03    0.725227E-01
                                                     -0.725218E-01    0.725226E-01    0.387067E+03
      300.000  15.3551   0.99999E+20   0.56017E-02    0.247945E+03   -0.452786E-01   -0.452789E-01
                                                     -0.452783E-01    0.247945E+03    0.452796E-01
                                                     -0.452790E-01    0.452795E-01    0.247945E+03
      400.000  15.3490   0.10000E+21   0.40644E-02    0.176790E+03   -0.394292E-01   -0.394295E-01
                                                     -0.394290E-01    0.176790E+03    0.394299E-01
                                                     -0.394295E-01    0.394299E-01    0.176790E+03

                                                      0.293122E+01    Max error
     Iteration number:         6

     =============================================================================================
       Temp     Fermi   Elec density  Population SR                  Elec mobility 
        [K]      [eV]     [cm^-3]      [e per cell]                    [cm^2/Vs]
     =============================================================================================

      200.000  15.3611   0.10000E+21   0.96981E-02    0.388106E+03   -0.682749E-01   -0.682755E-01
                                                     -0.682746E-01    0.388106E+03    0.682765E-01
                                                     -0.682756E-01    0.682764E-01    0.388106E+03
      300.000  15.3551   0.99999E+20   0.65478E-02    0.248771E+03   -0.423583E-01   -0.423587E-01
                                                     -0.423581E-01    0.248771E+03    0.423593E-01
                                                     -0.423587E-01    0.423592E-01    0.248771E+03
      400.000  15.3490   0.10000E+21   0.47446E-02    0.177469E+03   -0.375768E-01   -0.375771E-01
                                                     -0.375766E-01    0.177469E+03    0.375775E-01
                                                     -0.375771E-01    0.375775E-01    0.177469E+03

                                                      0.103851E+01    Max error
     Iteration number:         7

     =============================================================================================
       Temp     Fermi   Elec density  Population SR                  Elec mobility 
        [K]      [eV]     [cm^-3]      [e per cell]                    [cm^2/Vs]
     =============================================================================================

      200.000  15.3611   0.10000E+21   0.11104E-01    0.387738E+03   -0.700297E-01   -0.700302E-01
                                                     -0.700293E-01    0.387738E+03    0.700312E-01
                                                     -0.700304E-01    0.700311E-01    0.387738E+03
      300.000  15.3551   0.99999E+20   0.74941E-02    0.248468E+03   -0.436128E-01   -0.436131E-01
                                                     -0.436126E-01    0.248468E+03    0.436138E-01
                                                     -0.436132E-01    0.436137E-01    0.248468E+03
      400.000  15.3490   0.10000E+21   0.54237E-02    0.177213E+03   -0.384075E-01   -0.384077E-01
                                                     -0.384073E-01    0.177213E+03    0.384082E-01
                                                     -0.384078E-01    0.384081E-01    0.177213E+03

                                                      0.367935E+00    Max error
     Iteration number:         8

     =============================================================================================
       Temp     Fermi   Elec density  Population SR                  Elec mobility 
        [K]      [eV]     [cm^-3]      [e per cell]                    [cm^2/Vs]
     =============================================================================================

      200.000  15.3611   0.10000E+21   0.12509E-01    0.387868E+03   -0.693193E-01   -0.693199E-01
                                                     -0.693190E-01    0.387868E+03    0.693209E-01
                                                     -0.693200E-01    0.693208E-01    0.387868E+03
      300.000  15.3551   0.99999E+20   0.84401E-02    0.248579E+03   -0.430853E-01   -0.430857E-01
                                                     -0.430851E-01    0.248579E+03    0.430864E-01
                                                     -0.430858E-01    0.430863E-01    0.248579E+03
      400.000  15.3490   0.10000E+21   0.61016E-02    0.177310E+03   -0.380446E-01   -0.380449E-01
                                                     -0.380445E-01    0.177310E+03    0.380453E-01
                                                     -0.380449E-01    0.380453E-01    0.177310E+03

                                                      0.130357E+00    Max error
     Iteration number:         9

     =============================================================================================
       Temp     Fermi   Elec density  Population SR                  Elec mobility 
        [K]      [eV]     [cm^-3]      [e per cell]                    [cm^2/Vs]
     =============================================================================================

      200.000  15.3611   0.10000E+21   0.13915E-01    0.387822E+03   -0.696024E-01   -0.696029E-01
                                                     -0.696020E-01    0.387822E+03    0.696039E-01
                                                     -0.696031E-01    0.696038E-01    0.387822E+03
      300.000  15.3551   0.99999E+20   0.93860E-02    0.248538E+03   -0.433035E-01   -0.433039E-01
                                                     -0.433033E-01    0.248538E+03    0.433045E-01
                                                     -0.433040E-01    0.433044E-01    0.248538E+03
      400.000  15.3490   0.10000E+21   0.67788E-02    0.177273E+03   -0.382001E-01   -0.382003E-01
                                                     -0.381999E-01    0.177273E+03    0.382008E-01
                                                     -0.382004E-01    0.382007E-01    0.177273E+03

                                                      0.461845E-01    Max error
     Iteration number:        10

     =============================================================================================
       Temp     Fermi   Elec density  Population SR                  Elec mobility 
        [K]      [eV]     [cm^-3]      [e per cell]                    [cm^2/Vs]
     =============================================================================================

      200.000  15.3611   0.10000E+21   0.15321E-01    0.387839E+03   -0.694910E-01   -0.694915E-01
                                                     -0.694906E-01    0.387839E+03    0.694925E-01
                                                     -0.694917E-01    0.694924E-01    0.387839E+03
      300.000  15.3551   0.99999E+20   0.10332E-01    0.248553E+03   -0.432144E-01   -0.432148E-01
                                                     -0.432142E-01    0.248553E+03    0.432154E-01
                                                     -0.432149E-01    0.432154E-01    0.248553E+03
      400.000  15.3490   0.10000E+21   0.74554E-02    0.177287E+03   -0.381345E-01   -0.381347E-01
                                                     -0.381343E-01    0.177287E+03    0.381352E-01
                                                     -0.381348E-01    0.381351E-01    0.177287E+03

                                                      0.163629E-01    Max error
     Iteration number:        11

     =============================================================================================
       Temp     Fermi   Elec density  Population SR                  Elec mobility 
        [K]      [eV]     [cm^-3]      [e per cell]                    [cm^2/Vs]
     =============================================================================================

      200.000  15.3611   0.10000E+21   0.16727E-01    0.387833E+03   -0.695344E-01   -0.695349E-01
                                                     -0.695340E-01    0.387833E+03    0.695359E-01
                                                     -0.695351E-01    0.695358E-01    0.387833E+03
      300.000  15.3551   0.99999E+20   0.11278E-01    0.248548E+03   -0.432504E-01   -0.432508E-01
                                                     -0.432502E-01    0.248548E+03    0.432514E-01
                                                     -0.432509E-01    0.432514E-01    0.248548E+03
      400.000  15.3490   0.10000E+21   0.81316E-02    0.177282E+03   -0.381618E-01   -0.381621E-01
                                                     -0.381617E-01    0.177282E+03    0.381625E-01
                                                     -0.381621E-01    0.381625E-01    0.177282E+03

                                                      0.579727E-02    Max error
     Iteration number:        12

     =============================================================================================
       Temp     Fermi   Elec density  Population SR                  Elec mobility 
        [K]      [eV]     [cm^-3]      [e per cell]                    [cm^2/Vs]
     =============================================================================================

      200.000  15.3611   0.10000E+21   0.18132E-01    0.387835E+03   -0.695176E-01   -0.695182E-01
                                                     -0.695173E-01    0.387835E+03    0.695192E-01
                                                     -0.695183E-01    0.695191E-01    0.387835E+03
      300.000  15.3551   0.99999E+20   0.12224E-01    0.248550E+03   -0.432360E-01   -0.432363E-01
                                                     -0.432358E-01    0.248550E+03    0.432370E-01
                                                     -0.432364E-01    0.432369E-01    0.248550E+03
      400.000  15.3490   0.10000E+21   0.88078E-02    0.177284E+03   -0.381505E-01   -0.381508E-01
                                                     -0.381504E-01    0.177284E+03    0.381512E-01
                                                     -0.381508E-01    0.381512E-01    0.177284E+03

                                                      0.205394E-02    Max error
     Iteration number:        13

     =============================================================================================
       Temp     Fermi   Elec density  Population SR                  Elec mobility 
        [K]      [eV]     [cm^-3]      [e per cell]                    [cm^2/Vs]
     =============================================================================================

      200.000  15.3611   0.10000E+21   0.19538E-01    0.387834E+03   -0.695240E-01   -0.695246E-01
                                                     -0.695237E-01    0.387834E+03    0.695256E-01
                                                     -0.695247E-01    0.695255E-01    0.387834E+03
      300.000  15.3551   0.99999E+20   0.13171E-01    0.248549E+03   -0.432417E-01   -0.432421E-01
                                                     -0.432415E-01    0.248549E+03    0.432427E-01
                                                     -0.432422E-01    0.432427E-01    0.248549E+03
      400.000  15.3490   0.10000E+21   0.94842E-02    0.177283E+03   -0.381552E-01   -0.381554E-01
                                                     -0.381550E-01    0.177283E+03    0.381559E-01
                                                     -0.381555E-01    0.381558E-01    0.177283E+03

                                                      0.740766E-03    Max error
     Iteration number:        14

     =============================================================================================
       Temp     Fermi   Elec density  Population SR                  Elec mobility 
        [K]      [eV]     [cm^-3]      [e per cell]                    [cm^2/Vs]
     =============================================================================================

      200.000  15.3611   0.10000E+21   0.20944E-01    0.387834E+03   -0.695216E-01   -0.695221E-01
                                                     -0.695213E-01    0.387834E+03    0.695231E-01
                                                     -0.695223E-01    0.695230E-01    0.387834E+03
      300.000  15.3551   0.99999E+20   0.14117E-01    0.248549E+03   -0.432395E-01   -0.432398E-01
                                                     -0.432392E-01    0.248549E+03    0.432405E-01
                                                     -0.432399E-01    0.432404E-01    0.248549E+03
      400.000  15.3490   0.10000E+21   0.10161E-01    0.177283E+03   -0.381533E-01   -0.381535E-01
                                                     -0.381531E-01    0.177283E+03    0.381540E-01
                                                     -0.381536E-01    0.381539E-01    0.177283E+03

                                                      0.273163E-03    Max error
     Iteration number:        15

     =============================================================================================
       Temp     Fermi   Elec density  Population SR                  Elec mobility 
        [K]      [eV]     [cm^-3]      [e per cell]                    [cm^2/Vs]
     =============================================================================================

      200.000  15.3611   0.10000E+21   0.22349E-01    0.387834E+03   -0.695225E-01   -0.695231E-01
                                                     -0.695222E-01    0.387834E+03    0.695241E-01
                                                     -0.695232E-01    0.695240E-01    0.387834E+03
      300.000  15.3551   0.99999E+20   0.15064E-01    0.248549E+03   -0.432404E-01   -0.432407E-01
                                                     -0.432401E-01    0.248549E+03    0.432413E-01
                                                     -0.432408E-01    0.432413E-01    0.248549E+03
      400.000  15.3490   0.10000E+21   0.10839E-01    0.177283E+03   -0.381540E-01   -0.381543E-01
                                                     -0.381539E-01    0.177283E+03    0.381547E-01
                                                     -0.381543E-01    0.381547E-01    0.177283E+03

                                                      0.102789E-03    Max error
     Iteration number:        16

     =============================================================================================
       Temp     Fermi   Elec density  Population SR                  Elec mobility 
        [K]      [eV]     [cm^-3]      [e per cell]                    [cm^2/Vs]
     =============================================================================================

      200.000  15.3611   0.10000E+21   0.23755E-01    0.387834E+03   -0.695222E-01   -0.695227E-01
                                                     -0.695218E-01    0.387834E+03    0.695237E-01
                                                     -0.695229E-01    0.695236E-01    0.387834E+03
      300.000  15.3551   0.99999E+20   0.16012E-01    0.248549E+03   -0.432400E-01   -0.432404E-01
                                                     -0.432398E-01    0.248549E+03    0.432410E-01
                                                     -0.432404E-01    0.432409E-01    0.248549E+03
      400.000  15.3490   0.10000E+21   0.11517E-01    0.177283E+03   -0.381537E-01   -0.381540E-01
                                                     -0.381536E-01    0.177283E+03    0.381544E-01
                                                     -0.381540E-01    0.381544E-01    0.177283E+03

                                                      0.386791E-04    Max error
     Iteration number:        17

     =============================================================================================
       Temp     Fermi   Elec density  Population SR                  Elec mobility 
        [K]      [eV]     [cm^-3]      [e per cell]                    [cm^2/Vs]
     =============================================================================================

      200.000  15.3611   0.10000E+21   0.25161E-01    0.387834E+03   -0.695223E-01   -0.695228E-01
                                                     -0.695220E-01    0.387834E+03    0.695238E-01
                                                     -0.695230E-01    0.695237E-01    0.387834E+03
      300.000  15.3551   0.99999E+20   0.16961E-01    0.248549E+03   -0.432402E-01   -0.432405E-01
                                                     -0.432399E-01    0.248549E+03    0.432411E-01
                                                     -0.432406E-01    0.432411E-01    0.248549E+03
      400.000  15.3490   0.10000E+21   0.12197E-01    0.177283E+03   -0.381538E-01   -0.381541E-01
                                                     -0.381537E-01    0.177283E+03    0.381545E-01
                                                     -0.381542E-01    0.381545E-01    0.177283E+03

                                                      0.145542E-04    Max error
     Iteration number:        18

     =============================================================================================
       Temp     Fermi   Elec density  Population SR                  Elec mobility 
        [K]      [eV]     [cm^-3]      [e per cell]                    [cm^2/Vs]
     =============================================================================================

      200.000  15.3611   0.10000E+21   0.26567E-01    0.387834E+03   -0.695223E-01   -0.695228E-01
                                                     -0.695219E-01    0.387834E+03    0.695238E-01
                                                     -0.695229E-01    0.695237E-01    0.387834E+03
      300.000  15.3551   0.99999E+20   0.17909E-01    0.248549E+03   -0.432401E-01   -0.432404E-01
                                                     -0.432399E-01    0.248549E+03    0.432411E-01
                                                     -0.432405E-01    0.432410E-01    0.248549E+03
      400.000  15.3490   0.10000E+21   0.12878E-01    0.177283E+03   -0.381538E-01   -0.381540E-01
                                                     -0.381536E-01    0.177283E+03    0.381545E-01
                                                     -0.381541E-01    0.381544E-01    0.177283E+03

                                                      0.547710E-05    Max error
     Iteration number:        19

     =============================================================================================
       Temp     Fermi   Elec density  Population SR                  Elec mobility 
        [K]      [eV]     [cm^-3]      [e per cell]                    [cm^2/Vs]
     =============================================================================================

      200.000  15.3611   0.10000E+21   0.27973E-01    0.387834E+03   -0.695223E-01   -0.695228E-01
                                                     -0.695219E-01    0.387834E+03    0.695238E-01
                                                     -0.695229E-01    0.695237E-01    0.387834E+03
      300.000  15.3551   0.99999E+20   0.18859E-01    0.248549E+03   -0.432401E-01   -0.432405E-01
                                                     -0.432399E-01    0.248549E+03    0.432411E-01
                                                     -0.432405E-01    0.432410E-01    0.248549E+03
      400.000  15.3490   0.10000E+21   0.13561E-01    0.177283E+03   -0.381538E-01   -0.381540E-01
                                                     -0.381537E-01    0.177283E+03    0.381545E-01
                                                     -0.381541E-01    0.381545E-01    0.177283E+03

                                                      0.206052E-05    Max error
     Iteration number:        20

     =============================================================================================
       Temp     Fermi   Elec density  Population SR                  Elec mobility 
        [K]      [eV]     [cm^-3]      [e per cell]                    [cm^2/Vs]
     =============================================================================================

      200.000  15.3611   0.10000E+21   0.29379E-01    0.387834E+03   -0.695223E-01   -0.695228E-01
                                                     -0.695219E-01    0.387834E+03    0.695238E-01
                                                     -0.695229E-01    0.695237E-01    0.387834E+03
      300.000  15.3551   0.99999E+20   0.19810E-01    0.248549E+03   -0.432401E-01   -0.432404E-01
                                                     -0.432399E-01    0.248549E+03    0.432411E-01
                                                     -0.432405E-01    0.432410E-01    0.248549E+03
      400.000  15.3490   0.10000E+21   0.14246E-01    0.177283E+03   -0.381538E-01   -0.381540E-01
                                                     -0.381536E-01    0.177283E+03    0.381545E-01
                                                     -0.381541E-01    0.381545E-01    0.177283E+03

                                                      0.775835E-06    Max error

     Unfolding on the coarse grid
     elphon_wrap  :      0.01s CPU      0.01s WALL (       1 calls)

     INITIALIZATION: 




     Electron-Phonon interpolation
     ephwann      :     18.60s CPU     19.50s WALL (       1 calls)
     ep-interp    :     17.12s CPU     17.97s WALL (     189 calls)

     wigner_seitz :      0.31s CPU      0.31s WALL (       1 calls)
     rgd_blk_fine :      0.02s CPU      0.02s WALL (     552 calls)
     DynW2B       :      0.02s CPU      0.03s WALL (     189 calls)
     HamW2B       :     14.02s CPU     14.79s WALL (  644625 calls)
     vmeW2B       :      0.30s CPU      0.31s WALL (    4527 calls)
     ephW2Bp_opt  :      0.25s CPU      0.29s WALL (     189 calls)
     ephW2Bp_s23  :      0.06s CPU      0.07s WALL (      13 calls)
     ephW2Bp_s3   :      0.11s CPU      0.12s WALL (      85 calls)
     ephW2Bp_g3   :      0.05s CPU      0.06s WALL (     189 calls)
     ephW2B       :      0.02s CPU      0.02s WALL (     576 calls)
     print_ibte   :      0.23s CPU      0.29s WALL (     189 calls)


     MPI routines


     Total program execution
     EPW          :     18.61s CPU     19.52s WALL

     ===============================================================================
     The functionality-dependent EPW.bib file was created with suggested citations. 
     Please consider citing the papers listed in EPW.bib.                           
     ===============================================================================
                                                                                    
