                                                                                      
                                       ``:oss/                                        
                           `.+s+.     .+ys--yh+     `./ss+.                           
                          -sh//yy+`   +yy   +yy    -+h+-oyy                           
                          -yh- .oyy/.-sh.   .syo-.:sy-  /yh                           
                 `.-.`    `yh+   -oyyyo.     `/syys:    oys      `.`                  
               `/+ssys+-` `sh+      `                   oys`   .:osyo`                
               -yh- ./syyooyo`                          .sys+/oyo--yh/                
               `yy+    .-:-.                             `-/+/:`  -sh-                
                /yh.                                              oys                 
          ``..---hho---------`   .---------..`      `.-----.`    -hd+---.             
       `./osmNMMMMMMMMMMMMMMMs. +NNMMMMMMMMNNmh+.   yNMMMMMNm-  oNMMMMMNmo++:`        
       +sy--/sdMMMhyyyyyyyNMMh- .oyNMMmyyyyyhNMMm+` -yMMMdyyo:` .oyyNMMNhs+syy`       
       -yy/   /MMM+.`-+/``mMMy-   `mMMh:`````.dMMN:` `MMMy-`-dhhy```mMMy:``+hs        
        -yy+` /MMMo:-mMM+`-oo/.    mMMh:     `dMMN/`  dMMm:`dMMMMy..MMMo-.+yo`        
         .sys`/MMMMNNMMMs-         mMMmyooooymMMNo:   oMMM/sMMMMMM++MMN//oh:          
          `sh+/MMMhyyMMMs- `-`     mMMMMMMMMMNmy+-`   -MMMhMMMsmMMmdMMd/yy+           
    `-/+++oyy-/MMM+.`/hh/.`mNm:`   mMMd+/////:-.`      NMMMMMd/:NMMMMMy:/yyo/:.`      
   +os+//:-..-oMMMo:--:::-/MMMo. .-mMMd+---`           hMMMMN+. oMMMMMo. `-+osyso:`   
   syo     `mNMMMMMNNNNNNNNMMMo.oNNMMMMMNNNN:`         +MMMMs:`  dMMMN/`     ``:syo   
   /yh`     :syyyyyyyyyyyyyyyy+.`+syyyyyyyyo:`         .oyys:`   .oyys:`        +yh   
   -yh-        ````````````````    `````````              ``        ``          oys   
   -+h/------------------------::::::::://////++++++++++++++++++++++///////::::/yd:   
   shdddddddddddddddddddddddddddddhhhhhhhhyyyyyssssssssssssssssyyyyyyyhhhhhhhddddh`   
                                                                                      
  S. Ponce, E. R. Margine, C. Verdi, and F. Giustino,                                 
                                                Comput. Phys. Commun. 209, 116 (2016) 
                                                                                      

     Program EPW v.5.3.1 starts on 20Jul2021 at 14:42:44 

     This program is part of the open-source Quantum ESPRESSO suite
     for quantum simulation of materials; please cite
         "P. Giannozzi et al., J. Phys.:Condens. Matter 21 395502 (2009);
         "P. Giannozzi et al., J. Phys.:Condens. Matter 29 465901 (2017);
          URL http://www.quantum-espresso.org", 
     in publications or presentations arising from this work. More details at
     http://www.quantum-espresso.org/quote

     Parallel version (MPI), running on     1 processors

     MPI processes distributed on     1 nodes
     Reading input from epw.selfen.in

     Reading supplied temperature list.
                      
     ------------------------------------------------------------------------ 
                   RESTART - RESTART - RESTART - RESTART                         
     Restart is done without reading PWSCF save file.                  
     Be aware that some consistency checks are therefore not done.                  
     ------------------------------------------------------------------------ 
                      

     --                                                                         

     bravais-lattice index     =            0
     lattice parameter (a_0)   =       0.0000  a.u.
     unit-cell volume          =       0.0000 (a.u.)^3
     number of atoms/cell      =            0
     number of atomic types    =            0
     kinetic-energy cut-off    =       0.0000  Ry
     charge density cut-off    =       0.0000  Ry
     Exchange-correlation= not set
                           (  -1  -1  -1  -1  -1  -1  -1)


     celldm(1)=    0.00000  celldm(2)=    0.00000  celldm(3)=    0.00000
     celldm(4)=    0.00000  celldm(5)=    0.00000  celldm(6)=    0.00000

     crystal axes: (cart. coord. in units of a_0)
               a(1) = (  0.0000  0.0000  0.0000 )  
               a(2) = (  0.0000  0.0000  0.0000 )  
               a(3) = (  0.0000  0.0000  0.0000 )  

     reciprocal axes: (cart. coord. in units 2 pi/a_0)
               b(1) = (  0.0000  0.0000  0.0000 )  
               b(2) = (  0.0000  0.0000  0.0000 )  
               b(3) = (  0.0000  0.0000  0.0000 )  


     Atoms inside the unit cell: 

   Cartesian axes

     site n.  atom      mass           positions (a_0 units)

 
     No symmetry!

     G cutoff =    0.0000  (      0 G-vectors)     FFT grid: (  0,  0,  0)
     number of k points=    0
                       cart. coord. in units 2pi/a_0
     EPW          :      0.00s CPU      0.00s WALL

     EPW          :      0.00s CPU      0.00s WALL


     -------------------------------------------------------------------
     Using bn.ukk from disk
     -------------------------------------------------------------------

     Symmetries of Bravais lattice:  48
     Symmetries of crystal:          24

     Do not need to read .epb files; read .fmt files


     Band disentanglement is used: nbndsub =    8

     Computes the analytic long-range interaction for polar materials [lpolar]
      
     Construct the Wigner-Seitz cell using Wannier centers and atomic positions 
     Number of WS vectors for electrons      123
     Number of WS vectors for phonons       25
     Number of WS vectors for electron-phonon       25
     Maximum number of cores for efficient parallelization       50

     Reading Hamiltonian, Dynamical matrix and EP vertex in Wann rep from file


     Reading interatomic force constants

     Read Z* and epsilon
     IFC last    0.0091940
      Imposed simple ASR

     Finished reading ifcs


     Finished reading Wann rep data from file

     ===================================================================
     Memory usage:  VmHWM =        61Mb
                   VmPeak =      2613Mb
     ===================================================================
     
     Using uniform q-mesh:    5   5   5
     Size of q point mesh for interpolation:        125
     Using uniform k-mesh:    5   5   5
     Size of k point mesh for interpolation:        250
     Max number of k points per pool:              250

     Fermi energy coarse grid =  10.921574 eV

     ===================================================================

     Fermi energy is read from the input file: Ef =  25.000000 eV

     ===================================================================

              ibndmin =     2  ebndmin =     5.860 eV
              ibndmax =     8  ebndmax =    27.710 eV


     Number of ep-matrix elements per pool :        36750 ~=  287.11 Kb (@ 8 bytes/ DP)
      
     A selecq.fmt file was found but re-created because selecqread == .FALSE. 
     Number selected, total            100            100
     We only need to compute      125 q-points
      

     ===================================================================
     Phonon (Imaginary) Self-Energy in the Migdal Approximation
     ===================================================================


     Fermi Surface thickness =  20.000000 eV

     Golden Rule strictly enforced with T =   0.017235 eV
     Gaussian Broadening:   0.500000 eV, ngauss=   1
     DOS =  0.516659 states/spin/eV/Unit Cell at Ef= 25.000000 eV

     ismear =     1 iq =       1 coord.:   0.00000  0.00000  0.00000 wt:   0.00800 Temp:  200.000K
     -------------------------------------------------------------------
     lambda___(   1 )=       0.000000   gamma___=       0.000000 meV   omega=      0.0000 meV
     lambda_tr(   1 )=       0.000000   gamma_tr=       0.000000 meV   omega=      0.0000 meV
     lambda___(   2 )=       0.000000   gamma___=       0.000000 meV   omega=      0.0000 meV
     lambda_tr(   2 )=       0.000000   gamma_tr=       0.000000 meV   omega=      0.0000 meV
     lambda___(   3 )=       0.000000   gamma___=       0.000000 meV   omega=      0.0000 meV
     lambda_tr(   3 )=       0.000000   gamma_tr=       0.000000 meV   omega=      0.0000 meV
     lambda___(   4 )=       0.007757   gamma___=       0.206763 meV   omega=    128.1473 meV
     lambda_tr(   4 )=       0.010157   gamma_tr=       0.270741 meV   omega=    128.1473 meV
     lambda___(   5 )=       0.007757   gamma___=       0.206763 meV   omega=    128.1473 meV
     lambda_tr(   5 )=       0.010157   gamma_tr=       0.270741 meV   omega=    128.1473 meV
     lambda___(   6 )=       0.007757   gamma___=       0.206763 meV   omega=    128.1473 meV
     lambda_tr(   6 )=       0.010157   gamma_tr=       0.270741 meV   omega=    128.1473 meV
     lambda___( tot )=       0.023271
     lambda_tr( tot )=       0.030472
     -------------------------------------------------------------------


     Number of (k,k+q) pairs on the Fermi surface:      125 out of      125


     ===================================================================
     Phonon (Imaginary) Self-Energy in the Migdal Approximation
     ===================================================================


     Fermi Surface thickness =  20.000000 eV

     Golden Rule strictly enforced with T =   0.025852 eV
     Gaussian Broadening:   0.500000 eV, ngauss=   1
     DOS =  0.516659 states/spin/eV/Unit Cell at Ef= 25.000000 eV

     ismear =     1 iq =       1 coord.:   0.00000  0.00000  0.00000 wt:   0.00800 Temp:  300.000K
     -------------------------------------------------------------------
     lambda___(   1 )=       0.000000   gamma___=       0.000000 meV   omega=      0.0000 meV
     lambda_tr(   1 )=       0.000000   gamma_tr=       0.000000 meV   omega=      0.0000 meV
     lambda___(   2 )=       0.000000   gamma___=       0.000000 meV   omega=      0.0000 meV
     lambda_tr(   2 )=       0.000000   gamma_tr=       0.000000 meV   omega=      0.0000 meV
     lambda___(   3 )=       0.000000   gamma___=       0.000000 meV   omega=      0.0000 meV
     lambda_tr(   3 )=       0.000000   gamma_tr=       0.000000 meV   omega=      0.0000 meV
     lambda___(   4 )=       0.007918   gamma___=       0.211042 meV   omega=    128.1473 meV
     lambda_tr(   4 )=       0.010333   gamma_tr=       0.275422 meV   omega=    128.1473 meV
     lambda___(   5 )=       0.007918   gamma___=       0.211042 meV   omega=    128.1473 meV
     lambda_tr(   5 )=       0.010333   gamma_tr=       0.275422 meV   omega=    128.1473 meV
     lambda___(   6 )=       0.007918   gamma___=       0.211042 meV   omega=    128.1473 meV
     lambda_tr(   6 )=       0.010333   gamma_tr=       0.275422 meV   omega=    128.1473 meV
     lambda___( tot )=       0.023753
     lambda_tr( tot )=       0.030999
     -------------------------------------------------------------------


     Number of (k,k+q) pairs on the Fermi surface:      125 out of      125


     ===================================================================
     Electron (Imaginary) Self-Energy in the Migdal Approximation
     ===================================================================


     Fermi Surface thickness =  20.000000 eV

     Golden Rule strictly enforced with T =   0.017235 eV
     Gaussian Broadening:   0.500000 eV, ngauss=   1
 

     ===================================================================
     Electron (Imaginary) Self-Energy in the Migdal Approximation
     ===================================================================


     Fermi Surface thickness =  20.000000 eV

     Golden Rule strictly enforced with T =   0.025852 eV
     Gaussian Broadening:   0.500000 eV, ngauss=   1
 

     ismear =     1 iq =       2 coord.:   0.00000  0.00000  0.20000 wt:   0.00800 Temp:  200.000K
     -------------------------------------------------------------------
     lambda___(   1 )=       0.082383   gamma___=       0.154108 meV   omega=     33.9483 meV
     lambda_tr(   1 )=       0.117620   gamma_tr=       0.220024 meV   omega=     33.9483 meV
     lambda___(   2 )=       0.082383   gamma___=       0.154108 meV   omega=     33.9483 meV
     lambda_tr(   2 )=       0.117620   gamma_tr=       0.220024 meV   omega=     33.9483 meV
     lambda___(   3 )=       0.263098   gamma___=       1.681578 meV   omega=     62.7513 meV
     lambda_tr(   3 )=       0.209904   gamma_tr=       1.341590 meV   omega=     62.7513 meV
     lambda___(   4 )=       0.172599   gamma___=       4.448736 meV   omega=    126.0150 meV
     lambda_tr(   4 )=       0.165026   gamma_tr=       4.253547 meV   omega=    126.0150 meV
     lambda___(   5 )=       0.172599   gamma___=       4.448736 meV   omega=    126.0150 meV
     lambda_tr(   5 )=       0.165026   gamma_tr=       4.253547 meV   omega=    126.0150 meV
     lambda___(   6 )=       0.626772   gamma___=      24.254130 meV   omega=    154.4049 meV
     lambda_tr(   6 )=       0.604534   gamma_tr=      23.393578 meV   omega=    154.4049 meV
     lambda___( tot )=       1.399834
     lambda_tr( tot )=       1.379730
     -------------------------------------------------------------------


     Number of (k,k+q) pairs on the Fermi surface:      125 out of      125


     ismear =     1 iq =       2 coord.:   0.00000  0.00000  0.20000 wt:   0.00800 Temp:  300.000K
     -------------------------------------------------------------------
     lambda___(   1 )=       0.188088   gamma___=       0.351844 meV   omega=     33.9483 meV
     lambda_tr(   1 )=       0.296433   gamma_tr=       0.554519 meV   omega=     33.9483 meV
     lambda___(   2 )=       0.188088   gamma___=       0.351844 meV   omega=     33.9483 meV
     lambda_tr(   2 )=       0.296433   gamma_tr=       0.554519 meV   omega=     33.9483 meV
     lambda___(   3 )=       0.277477   gamma___=       1.773478 meV   omega=     62.7513 meV
     lambda_tr(   3 )=       0.253366   gamma_tr=       1.619377 meV   omega=     62.7513 meV
     lambda___(   4 )=       0.229093   gamma___=       5.904866 meV   omega=    126.0150 meV
     lambda_tr(   4 )=       0.231162   gamma_tr=       5.958188 meV   omega=    126.0150 meV
     lambda___(   5 )=       0.229093   gamma___=       5.904866 meV   omega=    126.0150 meV
     lambda_tr(   5 )=       0.231162   gamma_tr=       5.958188 meV   omega=    126.0150 meV
     lambda___(   6 )=       0.635786   gamma___=      24.602931 meV   omega=    154.4049 meV
     lambda_tr(   6 )=       0.613173   gamma_tr=      23.727874 meV   omega=    154.4049 meV
     lambda___( tot )=       1.747624
     lambda_tr( tot )=       1.921730
     -------------------------------------------------------------------


     Number of (k,k+q) pairs on the Fermi surface:      125 out of      125


     ismear =     1 iq =       3 coord.:   0.00000  0.00000  0.40000 wt:   0.00800 Temp:  200.000K
     -------------------------------------------------------------------
     lambda___(   1 )=       0.202428   gamma___=       1.062692 meV   omega=     56.8710 meV
     lambda_tr(   1 )=       0.826371   gamma_tr=       4.338215 meV   omega=     56.8710 meV
     lambda___(   2 )=       0.202428   gamma___=       1.062692 meV   omega=     56.8710 meV
     lambda_tr(   2 )=       0.826371   gamma_tr=       4.338215 meV   omega=     56.8710 meV
     lambda___(   3 )=       0.169447   gamma___=       3.260731 meV   omega=    108.8838 meV
     lambda_tr(   3 )=       0.451725   gamma_tr=       8.692700 meV   omega=    108.8838 meV
     lambda___(   4 )=       0.244327   gamma___=       5.862840 meV   omega=    121.5883 meV
     lambda_tr(   4 )=       0.541177   gamma_tr=      12.986036 meV   omega=    121.5883 meV
     lambda___(   5 )=       0.244327   gamma___=       5.862840 meV   omega=    121.5883 meV
     lambda_tr(   5 )=       0.541177   gamma_tr=      12.986036 meV   omega=    121.5883 meV
     lambda___(   6 )=       0.159155   gamma___=       5.399002 meV   omega=    144.5670 meV
     lambda_tr(   6 )=       0.267209   gamma_tr=       9.064477 meV   omega=    144.5670 meV
     lambda___( tot )=       1.222113
     lambda_tr( tot )=       3.454030
     -------------------------------------------------------------------


     Number of (k,k+q) pairs on the Fermi surface:      125 out of      125


     ismear =     1 iq =       3 coord.:   0.00000  0.00000  0.40000 wt:   0.00800 Temp:  300.000K
     -------------------------------------------------------------------
     lambda___(   1 )=       0.209854   gamma___=       1.101676 meV   omega=     56.8710 meV
     lambda_tr(   1 )=       0.837975   gamma_tr=       4.399132 meV   omega=     56.8710 meV
     lambda___(   2 )=       0.209854   gamma___=       1.101676 meV   omega=     56.8710 meV
     lambda_tr(   2 )=       0.837975   gamma_tr=       4.399132 meV   omega=     56.8710 meV
     lambda___(   3 )=       0.175638   gamma___=       3.379852 meV   omega=    108.8838 meV
     lambda_tr(   3 )=       0.463550   gamma_tr=       8.920242 meV   omega=    108.8838 meV
     lambda___(   4 )=       0.289690   gamma___=       6.951367 meV   omega=    121.5883 meV
     lambda_tr(   4 )=       0.588862   gamma_tr=      14.130284 meV   omega=    121.5883 meV
     lambda___(   5 )=       0.289690   gamma___=       6.951367 meV   omega=    121.5883 meV
     lambda_tr(   5 )=       0.588862   gamma_tr=      14.130284 meV   omega=    121.5883 meV
     lambda___(   6 )=       0.169217   gamma___=       5.740329 meV   omega=    144.5670 meV
     lambda_tr(   6 )=       0.276786   gamma_tr=       9.389382 meV   omega=    144.5670 meV
     lambda___( tot )=       1.343942
     lambda_tr( tot )=       3.594010
     -------------------------------------------------------------------


     Number of (k,k+q) pairs on the Fermi surface:      125 out of      125


     ismear =     1 iq =       4 coord.:   0.00000  0.00000  0.60000 wt:   0.00800 Temp:  200.000K
     -------------------------------------------------------------------
     lambda___(   1 )=       0.202429   gamma___=       1.062696 meV   omega=     56.8710 meV
     lambda_tr(   1 )=       0.826370   gamma_tr=       4.338209 meV   omega=     56.8710 meV
     lambda___(   2 )=       0.202429   gamma___=       1.062696 meV   omega=     56.8710 meV
     lambda_tr(   2 )=       0.826370   gamma_tr=       4.338209 meV   omega=     56.8710 meV
     lambda___(   3 )=       0.169448   gamma___=       3.260743 meV   omega=    108.8838 meV
     lambda_tr(   3 )=       0.451725   gamma_tr=       8.692690 meV   omega=    108.8838 meV
     lambda___(   4 )=       0.244327   gamma___=       5.862853 meV   omega=    121.5883 meV
     lambda_tr(   4 )=       0.541176   gamma_tr=      12.986023 meV   omega=    121.5883 meV
     lambda___(   5 )=       0.244327   gamma___=       5.862853 meV   omega=    121.5883 meV
     lambda_tr(   5 )=       0.541176   gamma_tr=      12.986023 meV   omega=    121.5883 meV
     lambda___(   6 )=       0.159156   gamma___=       5.399015 meV   omega=    144.5670 meV
     lambda_tr(   6 )=       0.267209   gamma_tr=       9.064477 meV   omega=    144.5670 meV
     lambda___( tot )=       1.222116
     lambda_tr( tot )=       3.454026
     -------------------------------------------------------------------


     Number of (k,k+q) pairs on the Fermi surface:      125 out of      125


     ismear =     1 iq =       4 coord.:   0.00000  0.00000  0.60000 wt:   0.00800 Temp:  300.000K
     -------------------------------------------------------------------
     lambda___(   1 )=       0.209855   gamma___=       1.101678 meV   omega=     56.8710 meV
     lambda_tr(   1 )=       0.837974   gamma_tr=       4.399125 meV   omega=     56.8710 meV
     lambda___(   2 )=       0.209855   gamma___=       1.101678 meV   omega=     56.8710 meV
     lambda_tr(   2 )=       0.837974   gamma_tr=       4.399125 meV   omega=     56.8710 meV
     lambda___(   3 )=       0.175638   gamma___=       3.379868 meV   omega=    108.8838 meV
     lambda_tr(   3 )=       0.463550   gamma_tr=       8.920240 meV   omega=    108.8838 meV
     lambda___(   4 )=       0.289689   gamma___=       6.951366 meV   omega=    121.5883 meV
     lambda_tr(   4 )=       0.588861   gamma_tr=      14.130260 meV   omega=    121.5883 meV
     lambda___(   5 )=       0.289689   gamma___=       6.951366 meV   omega=    121.5883 meV
     lambda_tr(   5 )=       0.588861   gamma_tr=      14.130260 meV   omega=    121.5883 meV
     lambda___(   6 )=       0.169218   gamma___=       5.740345 meV   omega=    144.5670 meV
     lambda_tr(   6 )=       0.276787   gamma_tr=       9.389385 meV   omega=    144.5670 meV
     lambda___( tot )=       1.343944
     lambda_tr( tot )=       3.594006
     -------------------------------------------------------------------


     Number of (k,k+q) pairs on the Fermi surface:      125 out of      125


     ismear =     1 iq =       5 coord.:   0.00000  0.00000  0.80000 wt:   0.00800 Temp:  200.000K
     -------------------------------------------------------------------
     lambda___(   1 )=       0.082384   gamma___=       0.154110 meV   omega=     33.9483 meV
     lambda_tr(   1 )=       0.117619   gamma_tr=       0.220023 meV   omega=     33.9483 meV
     lambda___(   2 )=       0.082384   gamma___=       0.154110 meV   omega=     33.9483 meV
     lambda_tr(   2 )=       0.117619   gamma_tr=       0.220023 meV   omega=     33.9483 meV
     lambda___(   3 )=       0.263100   gamma___=       1.681593 meV   omega=     62.7513 meV
     lambda_tr(   3 )=       0.209903   gamma_tr=       1.341582 meV   omega=     62.7513 meV
     lambda___(   4 )=       0.172599   gamma___=       4.448741 meV   omega=    126.0150 meV
     lambda_tr(   4 )=       0.165026   gamma_tr=       4.253546 meV   omega=    126.0150 meV
     lambda___(   5 )=       0.172599   gamma___=       4.448741 meV   omega=    126.0150 meV
     lambda_tr(   5 )=       0.165026   gamma_tr=       4.253546 meV   omega=    126.0150 meV
     lambda___(   6 )=       0.626773   gamma___=      24.254176 meV   omega=    154.4049 meV
     lambda_tr(   6 )=       0.604534   gamma_tr=      23.393566 meV   omega=    154.4049 meV
     lambda___( tot )=       1.399840
     lambda_tr( tot )=       1.379727
     -------------------------------------------------------------------


     Number of (k,k+q) pairs on the Fermi surface:      125 out of      125


     ismear =     1 iq =       5 coord.:   0.00000  0.00000  0.80000 wt:   0.00800 Temp:  300.000K
     -------------------------------------------------------------------
     lambda___(   1 )=       0.188089   gamma___=       0.351846 meV   omega=     33.9483 meV
     lambda_tr(   1 )=       0.296433   gamma_tr=       0.554518 meV   omega=     33.9483 meV
     lambda___(   2 )=       0.188089   gamma___=       0.351846 meV   omega=     33.9483 meV
     lambda_tr(   2 )=       0.296433   gamma_tr=       0.554518 meV   omega=     33.9483 meV
     lambda___(   3 )=       0.277479   gamma___=       1.773492 meV   omega=     62.7513 meV
     lambda_tr(   3 )=       0.253365   gamma_tr=       1.619369 meV   omega=     62.7513 meV
     lambda___(   4 )=       0.229093   gamma___=       5.904874 meV   omega=    126.0150 meV
     lambda_tr(   4 )=       0.231162   gamma_tr=       5.958189 meV   omega=    126.0150 meV
     lambda___(   5 )=       0.229093   gamma___=       5.904874 meV   omega=    126.0150 meV
     lambda_tr(   5 )=       0.231162   gamma_tr=       5.958189 meV   omega=    126.0150 meV
     lambda___(   6 )=       0.635787   gamma___=      24.602955 meV   omega=    154.4049 meV
     lambda_tr(   6 )=       0.613172   gamma_tr=      23.727831 meV   omega=    154.4049 meV
     lambda___( tot )=       1.747630
     lambda_tr( tot )=       1.921726
     -------------------------------------------------------------------


     Number of (k,k+q) pairs on the Fermi surface:      125 out of      125


     ismear =     1 iq =       6 coord.:   0.00000  0.20000  0.00000 wt:   0.00800 Temp:  200.000K
     -------------------------------------------------------------------
     lambda___(   1 )=       0.082384   gamma___=       0.154110 meV   omega=     33.9483 meV
     lambda_tr(   1 )=       0.117620   gamma_tr=       0.220024 meV   omega=     33.9483 meV
     lambda___(   2 )=       0.082384   gamma___=       0.154110 meV   omega=     33.9483 meV
     lambda_tr(   2 )=       0.117620   gamma_tr=       0.220024 meV   omega=     33.9483 meV
     lambda___(   3 )=       0.263100   gamma___=       1.681588 meV   omega=     62.7513 meV
     lambda_tr(   3 )=       0.209904   gamma_tr=       1.341590 meV   omega=     62.7513 meV
     lambda___(   4 )=       0.172599   gamma___=       4.448744 meV   omega=    126.0150 meV
     lambda_tr(   4 )=       0.165026   gamma_tr=       4.253549 meV   omega=    126.0150 meV
     lambda___(   5 )=       0.172599   gamma___=       4.448744 meV   omega=    126.0150 meV
     lambda_tr(   5 )=       0.165026   gamma_tr=       4.253549 meV   omega=    126.0150 meV
     lambda___(   6 )=       0.626773   gamma___=      24.254176 meV   omega=    154.4049 meV
     lambda_tr(   6 )=       0.604534   gamma_tr=      23.393591 meV   omega=    154.4049 meV
     lambda___( tot )=       1.399839
     lambda_tr( tot )=       1.379730
     -------------------------------------------------------------------


     Number of (k,k+q) pairs on the Fermi surface:      125 out of      125


     ismear =     1 iq =       6 coord.:   0.00000  0.20000  0.00000 wt:   0.00800 Temp:  300.000K
     -------------------------------------------------------------------
     lambda___(   1 )=       0.188089   gamma___=       0.351845 meV   omega=     33.9483 meV
     lambda_tr(   1 )=       0.296433   gamma_tr=       0.554519 meV   omega=     33.9483 meV
     lambda___(   2 )=       0.188089   gamma___=       0.351845 meV   omega=     33.9483 meV
     lambda_tr(   2 )=       0.296433   gamma_tr=       0.554519 meV   omega=     33.9483 meV
     lambda___(   3 )=       0.277478   gamma___=       1.773487 meV   omega=     62.7513 meV
     lambda_tr(   3 )=       0.253366   gamma_tr=       1.619376 meV   omega=     62.7513 meV
     lambda___(   4 )=       0.229094   gamma___=       5.904878 meV   omega=    126.0150 meV
     lambda_tr(   4 )=       0.231162   gamma_tr=       5.958193 meV   omega=    126.0150 meV
     lambda___(   5 )=       0.229094   gamma___=       5.904878 meV   omega=    126.0150 meV
     lambda_tr(   5 )=       0.231162   gamma_tr=       5.958193 meV   omega=    126.0150 meV
     lambda___(   6 )=       0.635787   gamma___=      24.602958 meV   omega=    154.4049 meV
     lambda_tr(   6 )=       0.613172   gamma_tr=      23.727859 meV   omega=    154.4049 meV
     lambda___( tot )=       1.747629
     lambda_tr( tot )=       1.921729
     -------------------------------------------------------------------


     Number of (k,k+q) pairs on the Fermi surface:      125 out of      125


     ismear =     1 iq =       7 coord.:   0.00000  0.20000  0.20000 wt:   0.00800 Temp:  200.000K
     -------------------------------------------------------------------
     lambda___(   1 )=       0.219612   gamma___=       0.728385 meV   omega=     45.2038 meV
     lambda_tr(   1 )=       0.395501   gamma_tr=       1.311751 meV   omega=     45.2038 meV
     lambda___(   2 )=       0.219612   gamma___=       0.728385 meV   omega=     45.2038 meV
     lambda_tr(   2 )=       0.395501   gamma_tr=       1.311751 meV   omega=     45.2038 meV
     lambda___(   3 )=       0.043055   gamma___=       0.298702 meV   omega=     65.3775 meV
     lambda_tr(   3 )=       0.289395   gamma_tr=       2.007707 meV   omega=     65.3775 meV
     lambda___(   4 )=       0.065681   gamma___=       1.648418 meV   omega=    124.3478 meV
     lambda_tr(   4 )=       0.143244   gamma_tr=       3.595047 meV   omega=    124.3478 meV
     lambda___(   5 )=       0.065681   gamma___=       1.648418 meV   omega=    124.3478 meV
     lambda_tr(   5 )=       0.143244   gamma_tr=       3.595047 meV   omega=    124.3478 meV
     lambda___(   6 )=       0.293055   gamma___=      11.454987 meV   omega=    155.1836 meV
     lambda_tr(   6 )=       0.333072   gamma_tr=      13.019181 meV   omega=    155.1836 meV
     lambda___( tot )=       0.906697
     lambda_tr( tot )=       1.699955
     -------------------------------------------------------------------


     Number of (k,k+q) pairs on the Fermi surface:      125 out of      125


     ismear =     1 iq =       7 coord.:   0.00000  0.20000  0.20000 wt:   0.00800 Temp:  300.000K
     -------------------------------------------------------------------
     lambda___(   1 )=       0.217416   gamma___=       0.721100 meV   omega=     45.2038 meV
     lambda_tr(   1 )=       0.391385   gamma_tr=       1.298101 meV   omega=     45.2038 meV
     lambda___(   2 )=       0.217416   gamma___=       0.721100 meV   omega=     45.2038 meV
     lambda_tr(   2 )=       0.391385   gamma_tr=       1.298101 meV   omega=     45.2038 meV
     lambda___(   3 )=       0.060684   gamma___=       0.421000 meV   omega=     65.3775 meV
     lambda_tr(   3 )=       0.283215   gamma_tr=       1.964836 meV   omega=     65.3775 meV
     lambda___(   4 )=       0.071439   gamma___=       1.792939 meV   omega=    124.3478 meV
     lambda_tr(   4 )=       0.145368   gamma_tr=       3.648370 meV   omega=    124.3478 meV
     lambda___(   5 )=       0.071439   gamma___=       1.792939 meV   omega=    124.3478 meV
     lambda_tr(   5 )=       0.145368   gamma_tr=       3.648370 meV   omega=    124.3478 meV
     lambda___(   6 )=       0.295698   gamma___=      11.558293 meV   omega=    155.1836 meV
     lambda_tr(   6 )=       0.339923   gamma_tr=      13.286973 meV   omega=    155.1836 meV
     lambda___( tot )=       0.934092
     lambda_tr( tot )=       1.696645
     -------------------------------------------------------------------


     Number of (k,k+q) pairs on the Fermi surface:      125 out of      125


     ismear =     1 iq =       8 coord.:   0.00000  0.20000  0.40000 wt:   0.00800 Temp:  200.000K
     -------------------------------------------------------------------
     lambda___(   1 )=       0.117590   gamma___=       0.799858 meV   omega=     64.7358 meV
     lambda_tr(   1 )=      -0.186105   gamma_tr=      -1.265906 meV   omega=     64.7358 meV
     lambda___(   2 )=       0.110224   gamma___=       0.871434 meV   omega=     69.7916 meV
     lambda_tr(   2 )=      -0.026998   gamma_tr=      -0.213450 meV   omega=     69.7916 meV
     lambda___(   3 )=       0.157576   gamma___=       2.512348 meV   omega=     99.1101 meV
     lambda_tr(   3 )=       0.057537   gamma_tr=       0.917348 meV   omega=     99.1101 meV
     lambda___(   4 )=       0.161166   gamma___=       3.743395 meV   omega=    119.6241 meV
     lambda_tr(   4 )=       0.004403   gamma_tr=       0.102273 meV   omega=    119.6241 meV
     lambda___(   5 )=       0.139826   gamma___=       3.401415 meV   omega=    122.4218 meV
     lambda_tr(   5 )=       0.124209   gamma_tr=       3.021518 meV   omega=    122.4218 meV
     lambda___(   6 )=       0.257275   gamma___=       8.936734 meV   omega=    146.2898 meV
     lambda_tr(   6 )=       0.126976   gamma_tr=       4.410667 meV   omega=    146.2898 meV
     lambda___( tot )=       0.943657
     lambda_tr( tot )=       0.100022
     -------------------------------------------------------------------


     Number of (k,k+q) pairs on the Fermi surface:      125 out of      125


     ismear =     1 iq =       8 coord.:   0.00000  0.20000  0.40000 wt:   0.00800 Temp:  300.000K
     -------------------------------------------------------------------
     lambda___(   1 )=       0.181948   gamma___=       1.237633 meV   omega=     64.7358 meV
     lambda_tr(   1 )=      -0.061469   gamma_tr=      -0.418116 meV   omega=     64.7358 meV
     lambda___(   2 )=       0.112714   gamma___=       0.891123 meV   omega=     69.7916 meV
     lambda_tr(   2 )=       0.015700   gamma_tr=       0.124125 meV   omega=     69.7916 meV
     lambda___(   3 )=       0.161616   gamma___=       2.576765 meV   omega=     99.1101 meV
     lambda_tr(   3 )=       0.071899   gamma_tr=       1.146336 meV   omega=     99.1101 meV
     lambda___(   4 )=       0.206096   gamma___=       4.786972 meV   omega=    119.6241 meV
     lambda_tr(   4 )=       0.061182   gamma_tr=       1.421062 meV   omega=    119.6241 meV
     lambda___(   5 )=       0.174239   gamma___=       4.238554 meV   omega=    122.4218 meV
     lambda_tr(   5 )=       0.169528   gamma_tr=       4.123933 meV   omega=    122.4218 meV
     lambda___(   6 )=       0.263560   gamma___=       9.155064 meV   omega=    146.2898 meV
     lambda_tr(   6 )=       0.138055   gamma_tr=       4.795493 meV   omega=    146.2898 meV
     lambda___( tot )=       1.100175
     lambda_tr( tot )=       0.394895
     -------------------------------------------------------------------


     Number of (k,k+q) pairs on the Fermi surface:      125 out of      125


     ismear =     1 iq =       9 coord.:   0.00000  0.20000  0.60000 wt:   0.00800 Temp:  200.000K
     -------------------------------------------------------------------
     lambda___(   1 )=       0.192759   gamma___=       1.444419 meV   omega=     67.9458 meV
     lambda_tr(   1 )=       0.018670   gamma_tr=       0.139905 meV   omega=     67.9458 meV
     lambda___(   2 )=       0.202760   gamma___=       2.278344 meV   omega=     83.2036 meV
     lambda_tr(   2 )=       0.337992   gamma_tr=       3.797897 meV   omega=     83.2036 meV
     lambda___(   3 )=       0.404801   gamma___=       8.659616 meV   omega=    114.8026 meV
     lambda_tr(   3 )=       0.388780   gamma_tr=       8.316892 meV   omega=    114.8026 meV
     lambda___(   4 )=       0.205437   gamma___=       4.674842 meV   omega=    118.4042 meV
     lambda_tr(   4 )=       0.266245   gamma_tr=       6.058569 meV   omega=    118.4042 meV
     lambda___(   5 )=       0.165295   gamma___=       4.173940 meV   omega=    124.7287 meV
     lambda_tr(   5 )=       0.252733   gamma_tr=       6.381866 meV   omega=    124.7287 meV
     lambda___(   6 )=       0.146647   gamma___=       4.189878 meV   omega=    132.6745 meV
     lambda_tr(   6 )=       0.081696   gamma_tr=       2.334141 meV   omega=    132.6745 meV
     lambda___( tot )=       1.317699
     lambda_tr( tot )=       1.346116
     -------------------------------------------------------------------


     Number of (k,k+q) pairs on the Fermi surface:      125 out of      125


     ismear =     1 iq =       9 coord.:   0.00000  0.20000  0.60000 wt:   0.00800 Temp:  300.000K
     -------------------------------------------------------------------
     lambda___(   1 )=       0.187719   gamma___=       1.406657 meV   omega=     67.9458 meV
     lambda_tr(   1 )=       0.010445   gamma_tr=       0.078269 meV   omega=     67.9458 meV
     lambda___(   2 )=       0.213674   gamma___=       2.400984 meV   omega=     83.2036 meV
     lambda_tr(   2 )=       0.347102   gamma_tr=       3.900270 meV   omega=     83.2036 meV
     lambda___(   3 )=       0.424365   gamma___=       9.078140 meV   omega=    114.8026 meV
     lambda_tr(   3 )=       0.403760   gamma_tr=       8.637337 meV   omega=    114.8026 meV
     lambda___(   4 )=       0.229574   gamma___=       5.224077 meV   omega=    118.4042 meV
     lambda_tr(   4 )=       0.289619   gamma_tr=       6.590458 meV   omega=    118.4042 meV
     lambda___(   5 )=       0.181106   gamma___=       4.573190 meV   omega=    124.7287 meV
     lambda_tr(   5 )=       0.262870   gamma_tr=       6.637853 meV   omega=    124.7287 meV
     lambda___(   6 )=       0.152232   gamma___=       4.349463 meV   omega=    132.6745 meV
     lambda_tr(   6 )=       0.086481   gamma_tr=       2.470874 meV   omega=    132.6745 meV
     lambda___( tot )=       1.388671
     lambda_tr( tot )=       1.400278
     -------------------------------------------------------------------


     Number of (k,k+q) pairs on the Fermi surface:      125 out of      125


     ismear =     1 iq =      10 coord.:   0.00000  0.20000  0.80000 wt:   0.00800 Temp:  200.000K
     -------------------------------------------------------------------
     lambda___(   1 )=       0.023888   gamma___=       0.099461 meV   omega=     50.6476 meV
     lambda_tr(   1 )=       0.079274   gamma_tr=       0.330066 meV   omega=     50.6476 meV
     lambda___(   2 )=       0.087124   gamma___=       0.647066 meV   omega=     67.6439 meV
     lambda_tr(   2 )=       0.126509   gamma_tr=       0.939581 meV   omega=     67.6439 meV
     lambda___(   3 )=       0.183183   gamma___=       2.224111 meV   omega=     86.4886 meV
     lambda_tr(   3 )=       0.342706   gamma_tr=       4.160954 meV   omega=     86.4886 meV
     lambda___(   4 )=       0.274860   gamma___=       6.766066 meV   omega=    123.1503 meV
     lambda_tr(   4 )=       0.312424   gamma_tr=       7.690765 meV   omega=    123.1503 meV
     lambda___(   5 )=       0.094244   gamma___=       2.390285 meV   omega=    125.0035 meV
     lambda_tr(   5 )=       0.094923   gamma_tr=       2.407530 meV   omega=    125.0035 meV
     lambda___(   6 )=       0.290701   gamma___=      10.240095 meV   omega=    147.3166 meV
     lambda_tr(   6 )=       0.388808   gamma_tr=      13.695948 meV   omega=    147.3166 meV
     lambda___( tot )=       0.954000
     lambda_tr( tot )=       1.344645
     -------------------------------------------------------------------


     Number of (k,k+q) pairs on the Fermi surface:      125 out of      125


     ismear =     1 iq =      10 coord.:   0.00000  0.20000  0.80000 wt:   0.00800 Temp:  300.000K
     -------------------------------------------------------------------
     lambda___(   1 )=       0.019916   gamma___=       0.082924 meV   omega=     50.6476 meV
     lambda_tr(   1 )=       0.080799   gamma_tr=       0.336415 meV   omega=     50.6476 meV
     lambda___(   2 )=       0.085528   gamma___=       0.635214 meV   omega=     67.6439 meV
     lambda_tr(   2 )=       0.129872   gamma_tr=       0.964556 meV   omega=     67.6439 meV
     lambda___(   3 )=       0.179188   gamma___=       2.175608 meV   omega=     86.4886 meV
     lambda_tr(   3 )=       0.332468   gamma_tr=       4.036644 meV   omega=     86.4886 meV
     lambda___(   4 )=       0.290769   gamma___=       7.157679 meV   omega=    123.1503 meV
     lambda_tr(   4 )=       0.333275   gamma_tr=       8.204035 meV   omega=    123.1503 meV
     lambda___(   5 )=       0.108270   gamma___=       2.746032 meV   omega=    125.0035 meV
     lambda_tr(   5 )=       0.107167   gamma_tr=       2.718057 meV   omega=    125.0035 meV
     lambda___(   6 )=       0.290443   gamma___=      10.231002 meV   omega=    147.3166 meV
     lambda_tr(   6 )=       0.386390   gamma_tr=      13.610783 meV   omega=    147.3166 meV
     lambda___( tot )=       0.974115
     lambda_tr( tot )=       1.369971
     -------------------------------------------------------------------


     Number of (k,k+q) pairs on the Fermi surface:      125 out of      125


     ismear =     1 iq =      11 coord.:   0.00000  0.40000  0.00000 wt:   0.00800 Temp:  200.000K
     -------------------------------------------------------------------
     lambda___(   1 )=       0.202428   gamma___=       1.062692 meV   omega=     56.8710 meV
     lambda_tr(   1 )=       0.826372   gamma_tr=       4.338217 meV   omega=     56.8710 meV
     lambda___(   2 )=       0.202428   gamma___=       1.062692 meV   omega=     56.8710 meV
     lambda_tr(   2 )=       0.826372   gamma_tr=       4.338217 meV   omega=     56.8710 meV
     lambda___(   3 )=       0.169447   gamma___=       3.260733 meV   omega=    108.8838 meV
     lambda_tr(   3 )=       0.451726   gamma_tr=       8.692706 meV   omega=    108.8838 meV
     lambda___(   4 )=       0.244326   gamma___=       5.862836 meV   omega=    121.5883 meV
     lambda_tr(   4 )=       0.541177   gamma_tr=      12.986041 meV   omega=    121.5883 meV
     lambda___(   5 )=       0.244326   gamma___=       5.862836 meV   omega=    121.5883 meV
     lambda_tr(   5 )=       0.541177   gamma_tr=      12.986041 meV   omega=    121.5883 meV
     lambda___(   6 )=       0.159155   gamma___=       5.399006 meV   omega=    144.5670 meV
     lambda_tr(   6 )=       0.267209   gamma_tr=       9.064482 meV   omega=    144.5670 meV
     lambda___( tot )=       1.222112
     lambda_tr( tot )=       3.454032
     -------------------------------------------------------------------


     Number of (k,k+q) pairs on the Fermi surface:      125 out of      125


     ismear =     1 iq =      11 coord.:   0.00000  0.40000  0.00000 wt:   0.00800 Temp:  300.000K
     -------------------------------------------------------------------
     lambda___(   1 )=       0.209854   gamma___=       1.101674 meV   omega=     56.8710 meV
     lambda_tr(   1 )=       0.837976   gamma_tr=       4.399134 meV   omega=     56.8710 meV
     lambda___(   2 )=       0.209854   gamma___=       1.101674 meV   omega=     56.8710 meV
     lambda_tr(   2 )=       0.837976   gamma_tr=       4.399134 meV   omega=     56.8710 meV
     lambda___(   3 )=       0.175638   gamma___=       3.379860 meV   omega=    108.8838 meV
     lambda_tr(   3 )=       0.463551   gamma_tr=       8.920258 meV   omega=    108.8838 meV
     lambda___(   4 )=       0.289689   gamma___=       6.951351 meV   omega=    121.5883 meV
     lambda_tr(   4 )=       0.588862   gamma_tr=      14.130280 meV   omega=    121.5883 meV
     lambda___(   5 )=       0.289689   gamma___=       6.951351 meV   omega=    121.5883 meV
     lambda_tr(   5 )=       0.588862   gamma_tr=      14.130280 meV   omega=    121.5883 meV
     lambda___(   6 )=       0.169217   gamma___=       5.740336 meV   omega=    144.5670 meV
     lambda_tr(   6 )=       0.276787   gamma_tr=       9.389391 meV   omega=    144.5670 meV
     lambda___( tot )=       1.343941
     lambda_tr( tot )=       3.594012
     -------------------------------------------------------------------


     Number of (k,k+q) pairs on the Fermi surface:      125 out of      125


     ismear =     1 iq =      12 coord.:   0.00000  0.40000  0.20000 wt:   0.00800 Temp:  200.000K
     -------------------------------------------------------------------
     lambda___(   1 )=       0.117589   gamma___=       0.799856 meV   omega=     64.7358 meV
     lambda_tr(   1 )=      -0.186106   gamma_tr=      -1.265913 meV   omega=     64.7358 meV
     lambda___(   2 )=       0.110223   gamma___=       0.871432 meV   omega=     69.7916 meV
     lambda_tr(   2 )=      -0.026999   gamma_tr=      -0.213455 meV   omega=     69.7916 meV
     lambda___(   3 )=       0.157576   gamma___=       2.512350 meV   omega=     99.1101 meV
     lambda_tr(   3 )=       0.057537   gamma_tr=       0.917348 meV   omega=     99.1101 meV
     lambda___(   4 )=       0.161166   gamma___=       3.743397 meV   omega=    119.6241 meV
     lambda_tr(   4 )=       0.004403   gamma_tr=       0.102261 meV   omega=    119.6241 meV
     lambda___(   5 )=       0.139826   gamma___=       3.401421 meV   omega=    122.4218 meV
     lambda_tr(   5 )=       0.124210   gamma_tr=       3.021525 meV   omega=    122.4218 meV
     lambda___(   6 )=       0.257275   gamma___=       8.936728 meV   omega=    146.2898 meV
     lambda_tr(   6 )=       0.126976   gamma_tr=       4.410642 meV   omega=    146.2898 meV
     lambda___( tot )=       0.943657
     lambda_tr( tot )=       0.100019
     -------------------------------------------------------------------


     Number of (k,k+q) pairs on the Fermi surface:      125 out of      125


     ismear =     1 iq =      12 coord.:   0.00000  0.40000  0.20000 wt:   0.00800 Temp:  300.000K
     -------------------------------------------------------------------
     lambda___(   1 )=       0.181948   gamma___=       1.237629 meV   omega=     64.7358 meV
     lambda_tr(   1 )=      -0.061469   gamma_tr=      -0.418118 meV   omega=     64.7358 meV
     lambda___(   2 )=       0.112714   gamma___=       0.891121 meV   omega=     69.7916 meV
     lambda_tr(   2 )=       0.015700   gamma_tr=       0.124122 meV   omega=     69.7916 meV
     lambda___(   3 )=       0.161617   gamma___=       2.576768 meV   omega=     99.1101 meV
     lambda_tr(   3 )=       0.071899   gamma_tr=       1.146337 meV   omega=     99.1101 meV
     lambda___(   4 )=       0.206096   gamma___=       4.786971 meV   omega=    119.6241 meV
     lambda_tr(   4 )=       0.061181   gamma_tr=       1.421055 meV   omega=    119.6241 meV
     lambda___(   5 )=       0.174240   gamma___=       4.238562 meV   omega=    122.4218 meV
     lambda_tr(   5 )=       0.169528   gamma_tr=       4.123946 meV   omega=    122.4218 meV
     lambda___(   6 )=       0.263560   gamma___=       9.155055 meV   omega=    146.2898 meV
     lambda_tr(   6 )=       0.138054   gamma_tr=       4.795463 meV   omega=    146.2898 meV
     lambda___( tot )=       1.100174
     lambda_tr( tot )=       0.394893
     -------------------------------------------------------------------


     Number of (k,k+q) pairs on the Fermi surface:      125 out of      125


     ismear =     1 iq =      13 coord.:   0.00000  0.40000  0.40000 wt:   0.00800 Temp:  200.000K
     -------------------------------------------------------------------
     lambda___(   1 )=       0.195914   gamma___=       2.039802 meV   omega=     80.0912 meV
     lambda_tr(   1 )=       0.255004   gamma_tr=       2.655041 meV   omega=     80.0912 meV
     lambda___(   2 )=       0.195914   gamma___=       2.039802 meV   omega=     80.0912 meV
     lambda_tr(   2 )=       0.255004   gamma_tr=       2.655041 meV   omega=     80.0912 meV
     lambda___(   3 )=       0.267612   gamma___=       5.607926 meV   omega=    113.6243 meV
     lambda_tr(   3 )=       0.308118   gamma_tr=       6.456744 meV   omega=    113.6243 meV
     lambda___(   4 )=       0.271613   gamma___=       5.737422 meV   omega=    114.0791 meV
     lambda_tr(   4 )=       0.315773   gamma_tr=       6.670236 meV   omega=    114.0791 meV
     lambda___(   5 )=       0.271613   gamma___=       5.737422 meV   omega=    114.0791 meV
     lambda_tr(   5 )=       0.315773   gamma_tr=       6.670236 meV   omega=    114.0791 meV
     lambda___(   6 )=       0.191329   gamma___=       6.648892 meV   omega=    146.3214 meV
     lambda_tr(   6 )=       0.210016   gamma_tr=       7.298284 meV   omega=    146.3214 meV
     lambda___( tot )=       1.393995
     lambda_tr( tot )=       1.659690
     -------------------------------------------------------------------


     Number of (k,k+q) pairs on the Fermi surface:      125 out of      125


     ismear =     1 iq =      13 coord.:   0.00000  0.40000  0.40000 wt:   0.00800 Temp:  300.000K
     -------------------------------------------------------------------
     lambda___(   1 )=       0.202976   gamma___=       2.113333 meV   omega=     80.0912 meV
     lambda_tr(   1 )=       0.243633   gamma_tr=       2.536644 meV   omega=     80.0912 meV
     lambda___(   2 )=       0.202976   gamma___=       2.113333 meV   omega=     80.0912 meV
     lambda_tr(   2 )=       0.243633   gamma_tr=       2.536644 meV   omega=     80.0912 meV
     lambda___(   3 )=       0.276844   gamma___=       5.801385 meV   omega=    113.6243 meV
     lambda_tr(   3 )=       0.315547   gamma_tr=       6.612403 meV   omega=    113.6243 meV
     lambda___(   4 )=       0.284548   gamma___=       6.010640 meV   omega=    114.0791 meV
     lambda_tr(   4 )=       0.315792   gamma_tr=       6.670622 meV   omega=    114.0791 meV
     lambda___(   5 )=       0.284548   gamma___=       6.010640 meV   omega=    114.0791 meV
     lambda_tr(   5 )=       0.315792   gamma_tr=       6.670622 meV   omega=    114.0791 meV
     lambda___(   6 )=       0.197821   gamma___=       6.874500 meV   omega=    146.3214 meV
     lambda_tr(   6 )=       0.211522   gamma_tr=       7.350643 meV   omega=    146.3214 meV
     lambda___( tot )=       1.449712
     lambda_tr( tot )=       1.645918
     -------------------------------------------------------------------


     Number of (k,k+q) pairs on the Fermi surface:      125 out of      125


     ismear =     1 iq =      14 coord.:   0.00000  0.40000  0.60000 wt:   0.00800 Temp:  200.000K
     -------------------------------------------------------------------
     lambda___(   1 )=       0.128468   gamma___=       1.423891 meV   omega=     82.6349 meV
     lambda_tr(   1 )=       0.120128   gamma_tr=       1.331451 meV   omega=     82.6349 meV
     lambda___(   2 )=       0.110441   gamma___=       1.794207 meV   omega=    100.0448 meV
     lambda_tr(   2 )=       0.100955   gamma_tr=       1.640108 meV   omega=    100.0448 meV
     lambda___(   3 )=       0.092054   gamma___=       1.846233 meV   omega=    111.1594 meV
     lambda_tr(   3 )=       0.091559   gamma_tr=       1.836316 meV   omega=    111.1594 meV
     lambda___(   4 )=       0.176043   gamma___=       3.623446 meV   omega=    112.6094 meV
     lambda_tr(   4 )=       0.185234   gamma_tr=       3.812627 meV   omega=    112.6094 meV
     lambda___(   5 )=       0.456414   gamma___=      10.659617 meV   omega=    119.9540 meV
     lambda_tr(   5 )=       0.479653   gamma_tr=      11.202382 meV   omega=    119.9540 meV
     lambda___(   6 )=       0.149457   gamma___=       4.450448 meV   omega=    135.4460 meV
     lambda_tr(   6 )=       0.154099   gamma_tr=       4.588659 meV   omega=    135.4460 meV
     lambda___( tot )=       1.112877
     lambda_tr( tot )=       1.131629
     -------------------------------------------------------------------


     Number of (k,k+q) pairs on the Fermi surface:      125 out of      125


     ismear =     1 iq =      14 coord.:   0.00000  0.40000  0.60000 wt:   0.00800 Temp:  300.000K
     -------------------------------------------------------------------
     lambda___(   1 )=       0.166593   gamma___=       1.846450 meV   omega=     82.6349 meV
     lambda_tr(   1 )=       0.122326   gamma_tr=       1.355807 meV   omega=     82.6349 meV
     lambda___(   2 )=       0.133442   gamma___=       2.167880 meV   omega=    100.0448 meV
     lambda_tr(   2 )=       0.080838   gamma_tr=       1.313290 meV   omega=    100.0448 meV
     lambda___(   3 )=       0.127086   gamma___=       2.548851 meV   omega=    111.1594 meV
     lambda_tr(   3 )=       0.111428   gamma_tr=       2.234814 meV   omega=    111.1594 meV
     lambda___(   4 )=       0.252551   gamma___=       5.198197 meV   omega=    112.6094 meV
     lambda_tr(   4 )=       0.221648   gamma_tr=       4.562115 meV   omega=    112.6094 meV
     lambda___(   5 )=       0.487520   gamma___=      11.386110 meV   omega=    119.9540 meV
     lambda_tr(   5 )=       0.491524   gamma_tr=      11.479627 meV   omega=    119.9540 meV
     lambda___(   6 )=       0.157874   gamma___=       4.701068 meV   omega=    135.4460 meV
     lambda_tr(   6 )=       0.156095   gamma_tr=       4.648095 meV   omega=    135.4460 meV
     lambda___( tot )=       1.325066
     lambda_tr( tot )=       1.183859
     -------------------------------------------------------------------


     Number of (k,k+q) pairs on the Fermi surface:      125 out of      125


     ismear =     1 iq =      15 coord.:   0.00000  0.40000  0.80000 wt:   0.00800 Temp:  200.000K
     -------------------------------------------------------------------
     lambda___(   1 )=       0.192758   gamma___=       1.444415 meV   omega=     67.9458 meV
     lambda_tr(   1 )=       0.018670   gamma_tr=       0.139900 meV   omega=     67.9458 meV
     lambda___(   2 )=       0.202760   gamma___=       2.278349 meV   omega=     83.2036 meV
     lambda_tr(   2 )=       0.337991   gamma_tr=       3.797888 meV   omega=     83.2036 meV
     lambda___(   3 )=       0.404801   gamma___=       8.659615 meV   omega=    114.8026 meV
     lambda_tr(   3 )=       0.388780   gamma_tr=       8.316893 meV   omega=    114.8026 meV
     lambda___(   4 )=       0.205437   gamma___=       4.674833 meV   omega=    118.4042 meV
     lambda_tr(   4 )=       0.266245   gamma_tr=       6.058550 meV   omega=    118.4042 meV
     lambda___(   5 )=       0.165295   gamma___=       4.173942 meV   omega=    124.7287 meV
     lambda_tr(   5 )=       0.252732   gamma_tr=       6.381847 meV   omega=    124.7287 meV
     lambda___(   6 )=       0.146647   gamma___=       4.189879 meV   omega=    132.6745 meV
     lambda_tr(   6 )=       0.081695   gamma_tr=       2.334137 meV   omega=    132.6745 meV
     lambda___( tot )=       1.317698
     lambda_tr( tot )=       1.346113
     -------------------------------------------------------------------


     Number of (k,k+q) pairs on the Fermi surface:      125 out of      125


     ismear =     1 iq =      15 coord.:   0.00000  0.40000  0.80000 wt:   0.00800 Temp:  300.000K
     -------------------------------------------------------------------
     lambda___(   1 )=       0.187719   gamma___=       1.406653 meV   omega=     67.9458 meV
     lambda_tr(   1 )=       0.010444   gamma_tr=       0.078263 meV   omega=     67.9458 meV
     lambda___(   2 )=       0.213675   gamma___=       2.400989 meV   omega=     83.2036 meV
     lambda_tr(   2 )=       0.347101   gamma_tr=       3.900261 meV   omega=     83.2036 meV
     lambda___(   3 )=       0.424365   gamma___=       9.078139 meV   omega=    114.8026 meV
     lambda_tr(   3 )=       0.403760   gamma_tr=       8.637340 meV   omega=    114.8026 meV
     lambda___(   4 )=       0.229573   gamma___=       5.224067 meV   omega=    118.4042 meV
     lambda_tr(   4 )=       0.289619   gamma_tr=       6.590438 meV   omega=    118.4042 meV
     lambda___(   5 )=       0.181106   gamma___=       4.573192 meV   omega=    124.7287 meV
     lambda_tr(   5 )=       0.262869   gamma_tr=       6.637833 meV   omega=    124.7287 meV
     lambda___(   6 )=       0.152232   gamma___=       4.349463 meV   omega=    132.6745 meV
     lambda_tr(   6 )=       0.086481   gamma_tr=       2.470870 meV   omega=    132.6745 meV
     lambda___( tot )=       1.388670
     lambda_tr( tot )=       1.400274
     -------------------------------------------------------------------


     Number of (k,k+q) pairs on the Fermi surface:      125 out of      125


     ismear =     1 iq =      16 coord.:   0.00000  0.60000  0.00000 wt:   0.00800 Temp:  200.000K
     -------------------------------------------------------------------
     lambda___(   1 )=       0.202429   gamma___=       1.062696 meV   omega=     56.8710 meV
     lambda_tr(   1 )=       0.826370   gamma_tr=       4.338206 meV   omega=     56.8710 meV
     lambda___(   2 )=       0.202429   gamma___=       1.062696 meV   omega=     56.8710 meV
     lambda_tr(   2 )=       0.826370   gamma_tr=       4.338206 meV   omega=     56.8710 meV
     lambda___(   3 )=       0.169448   gamma___=       3.260741 meV   omega=    108.8838 meV
     lambda_tr(   3 )=       0.451724   gamma_tr=       8.692683 meV   omega=    108.8838 meV
     lambda___(   4 )=       0.244327   gamma___=       5.862856 meV   omega=    121.5883 meV
     lambda_tr(   4 )=       0.541176   gamma_tr=      12.986018 meV   omega=    121.5883 meV
     lambda___(   5 )=       0.244327   gamma___=       5.862856 meV   omega=    121.5883 meV
     lambda_tr(   5 )=       0.541176   gamma_tr=      12.986018 meV   omega=    121.5883 meV
     lambda___(   6 )=       0.159156   gamma___=       5.399012 meV   omega=    144.5670 meV
     lambda_tr(   6 )=       0.267209   gamma_tr=       9.064472 meV   omega=    144.5670 meV
     lambda___( tot )=       1.222116
     lambda_tr( tot )=       3.454024
     -------------------------------------------------------------------


     Number of (k,k+q) pairs on the Fermi surface:      125 out of      125


     ismear =     1 iq =      16 coord.:   0.00000  0.60000  0.00000 wt:   0.00800 Temp:  300.000K
     -------------------------------------------------------------------
     lambda___(   1 )=       0.209855   gamma___=       1.101679 meV   omega=     56.8710 meV
     lambda_tr(   1 )=       0.837973   gamma_tr=       4.399123 meV   omega=     56.8710 meV
     lambda___(   2 )=       0.209855   gamma___=       1.101679 meV   omega=     56.8710 meV
     lambda_tr(   2 )=       0.837973   gamma_tr=       4.399123 meV   omega=     56.8710 meV
     lambda___(   3 )=       0.175638   gamma___=       3.379861 meV   omega=    108.8838 meV
     lambda_tr(   3 )=       0.463549   gamma_tr=       8.920225 meV   omega=    108.8838 meV
     lambda___(   4 )=       0.289690   gamma___=       6.951381 meV   omega=    121.5883 meV
     lambda_tr(   4 )=       0.588861   gamma_tr=      14.130264 meV   omega=    121.5883 meV
     lambda___(   5 )=       0.289690   gamma___=       6.951381 meV   omega=    121.5883 meV
     lambda_tr(   5 )=       0.588861   gamma_tr=      14.130264 meV   omega=    121.5883 meV
     lambda___(   6 )=       0.169217   gamma___=       5.740338 meV   omega=    144.5670 meV
     lambda_tr(   6 )=       0.276786   gamma_tr=       9.389377 meV   omega=    144.5670 meV
     lambda___( tot )=       1.343946
     lambda_tr( tot )=       3.594004
     -------------------------------------------------------------------


     Number of (k,k+q) pairs on the Fermi surface:      125 out of      125


     ismear =     1 iq =      17 coord.:   0.00000  0.60000  0.20000 wt:   0.00800 Temp:  200.000K
     -------------------------------------------------------------------
     lambda___(   1 )=       0.192759   gamma___=       1.444418 meV   omega=     67.9458 meV
     lambda_tr(   1 )=       0.018671   gamma_tr=       0.139910 meV   omega=     67.9458 meV
     lambda___(   2 )=       0.202760   gamma___=       2.278343 meV   omega=     83.2036 meV
     lambda_tr(   2 )=       0.337992   gamma_tr=       3.797904 meV   omega=     83.2036 meV
     lambda___(   3 )=       0.404802   gamma___=       8.659625 meV   omega=    114.8026 meV
     lambda_tr(   3 )=       0.388781   gamma_tr=       8.316919 meV   omega=    114.8026 meV
     lambda___(   4 )=       0.205437   gamma___=       4.674839 meV   omega=    118.4042 meV
     lambda_tr(   4 )=       0.266246   gamma_tr=       6.058577 meV   omega=    118.4042 meV
     lambda___(   5 )=       0.165295   gamma___=       4.173939 meV   omega=    124.7287 meV
     lambda_tr(   5 )=       0.252733   gamma_tr=       6.381873 meV   omega=    124.7287 meV
     lambda___(   6 )=       0.146647   gamma___=       4.189880 meV   omega=    132.6745 meV
     lambda_tr(   6 )=       0.081696   gamma_tr=       2.334147 meV   omega=    132.6745 meV
     lambda___( tot )=       1.317699
     lambda_tr( tot )=       1.346119
     -------------------------------------------------------------------


     Number of (k,k+q) pairs on the Fermi surface:      125 out of      125


     ismear =     1 iq =      17 coord.:   0.00000  0.60000  0.20000 wt:   0.00800 Temp:  300.000K
     -------------------------------------------------------------------
     lambda___(   1 )=       0.187719   gamma___=       1.406657 meV   omega=     67.9458 meV
     lambda_tr(   1 )=       0.010446   gamma_tr=       0.078276 meV   omega=     67.9458 meV
     lambda___(   2 )=       0.213674   gamma___=       2.400982 meV   omega=     83.2036 meV
     lambda_tr(   2 )=       0.347103   gamma_tr=       3.900278 meV   omega=     83.2036 meV
     lambda___(   3 )=       0.424366   gamma___=       9.078165 meV   omega=    114.8026 meV
     lambda_tr(   3 )=       0.403762   gamma_tr=       8.637390 meV   omega=    114.8026 meV
     lambda___(   4 )=       0.229573   gamma___=       5.224074 meV   omega=    118.4042 meV
     lambda_tr(   4 )=       0.289620   gamma_tr=       6.590469 meV   omega=    118.4042 meV
     lambda___(   5 )=       0.181106   gamma___=       4.573186 meV   omega=    124.7287 meV
     lambda_tr(   5 )=       0.262870   gamma_tr=       6.637858 meV   omega=    124.7287 meV
     lambda___(   6 )=       0.152232   gamma___=       4.349466 meV   omega=    132.6745 meV
     lambda_tr(   6 )=       0.086482   gamma_tr=       2.470883 meV   omega=    132.6745 meV
     lambda___( tot )=       1.388671
     lambda_tr( tot )=       1.400283
     -------------------------------------------------------------------


     Number of (k,k+q) pairs on the Fermi surface:      125 out of      125


     ismear =     1 iq =      18 coord.:   0.00000  0.60000  0.40000 wt:   0.00800 Temp:  200.000K
     -------------------------------------------------------------------
     lambda___(   1 )=       0.128469   gamma___=       1.423898 meV   omega=     82.6349 meV
     lambda_tr(   1 )=       0.120129   gamma_tr=       1.331461 meV   omega=     82.6349 meV
     lambda___(   2 )=       0.110441   gamma___=       1.794214 meV   omega=    100.0448 meV
     lambda_tr(   2 )=       0.100956   gamma_tr=       1.640118 meV   omega=    100.0448 meV
     lambda___(   3 )=       0.092054   gamma___=       1.846238 meV   omega=    111.1594 meV
     lambda_tr(   3 )=       0.091559   gamma_tr=       1.836323 meV   omega=    111.1594 meV
     lambda___(   4 )=       0.176044   gamma___=       3.623456 meV   omega=    112.6094 meV
     lambda_tr(   4 )=       0.185235   gamma_tr=       3.812645 meV   omega=    112.6094 meV
     lambda___(   5 )=       0.456414   gamma___=      10.659615 meV   omega=    119.9540 meV
     lambda_tr(   5 )=       0.479652   gamma_tr=      11.202356 meV   omega=    119.9540 meV
     lambda___(   6 )=       0.149457   gamma___=       4.450449 meV   omega=    135.4460 meV
     lambda_tr(   6 )=       0.154099   gamma_tr=       4.588659 meV   omega=    135.4460 meV
     lambda___( tot )=       1.112879
     lambda_tr( tot )=       1.131631
     -------------------------------------------------------------------


     Number of (k,k+q) pairs on the Fermi surface:      125 out of      125


     ismear =     1 iq =      18 coord.:   0.00000  0.60000  0.40000 wt:   0.00800 Temp:  300.000K
     -------------------------------------------------------------------
     lambda___(   1 )=       0.166594   gamma___=       1.846461 meV   omega=     82.6349 meV
     lambda_tr(   1 )=       0.122327   gamma_tr=       1.355827 meV   omega=     82.6349 meV
     lambda___(   2 )=       0.133443   gamma___=       2.167890 meV   omega=    100.0448 meV
     lambda_tr(   2 )=       0.080840   gamma_tr=       1.313309 meV   omega=    100.0448 meV
     lambda___(   3 )=       0.127087   gamma___=       2.548861 meV   omega=    111.1594 meV
     lambda_tr(   3 )=       0.111429   gamma_tr=       2.234832 meV   omega=    111.1594 meV
     lambda___(   4 )=       0.252552   gamma___=       5.198216 meV   omega=    112.6094 meV
     lambda_tr(   4 )=       0.221650   gamma_tr=       4.562159 meV   omega=    112.6094 meV
     lambda___(   5 )=       0.487519   gamma___=      11.386081 meV   omega=    119.9540 meV
     lambda_tr(   5 )=       0.491521   gamma_tr=      11.479554 meV   omega=    119.9540 meV
     lambda___(   6 )=       0.157874   gamma___=       4.701070 meV   omega=    135.4460 meV
     lambda_tr(   6 )=       0.156095   gamma_tr=       4.648098 meV   omega=    135.4460 meV
     lambda___( tot )=       1.325068
     lambda_tr( tot )=       1.183862
     -------------------------------------------------------------------


     Number of (k,k+q) pairs on the Fermi surface:      125 out of      125


     ismear =     1 iq =      19 coord.:   0.00000  0.60000  0.60000 wt:   0.00800 Temp:  200.000K
     -------------------------------------------------------------------
     lambda___(   1 )=       0.195913   gamma___=       2.039801 meV   omega=     80.0912 meV
     lambda_tr(   1 )=       0.255004   gamma_tr=       2.655041 meV   omega=     80.0912 meV
     lambda___(   2 )=       0.195913   gamma___=       2.039801 meV   omega=     80.0912 meV
     lambda_tr(   2 )=       0.255004   gamma_tr=       2.655041 meV   omega=     80.0912 meV
     lambda___(   3 )=       0.267612   gamma___=       5.607924 meV   omega=    113.6243 meV
     lambda_tr(   3 )=       0.308118   gamma_tr=       6.456743 meV   omega=    113.6243 meV
     lambda___(   4 )=       0.271613   gamma___=       5.737420 meV   omega=    114.0791 meV
     lambda_tr(   4 )=       0.315773   gamma_tr=       6.670233 meV   omega=    114.0791 meV
     lambda___(   5 )=       0.271613   gamma___=       5.737420 meV   omega=    114.0791 meV
     lambda_tr(   5 )=       0.315773   gamma_tr=       6.670233 meV   omega=    114.0791 meV
     lambda___(   6 )=       0.191329   gamma___=       6.648890 meV   omega=    146.3214 meV
     lambda_tr(   6 )=       0.210016   gamma_tr=       7.298281 meV   omega=    146.3214 meV
     lambda___( tot )=       1.393995
     lambda_tr( tot )=       1.659689
     -------------------------------------------------------------------


     Number of (k,k+q) pairs on the Fermi surface:      125 out of      125


     ismear =     1 iq =      19 coord.:   0.00000  0.60000  0.60000 wt:   0.00800 Temp:  300.000K
     -------------------------------------------------------------------
     lambda___(   1 )=       0.202976   gamma___=       2.113333 meV   omega=     80.0912 meV
     lambda_tr(   1 )=       0.243633   gamma_tr=       2.536643 meV   omega=     80.0912 meV
     lambda___(   2 )=       0.202976   gamma___=       2.113333 meV   omega=     80.0912 meV
     lambda_tr(   2 )=       0.243633   gamma_tr=       2.536643 meV   omega=     80.0912 meV
     lambda___(   3 )=       0.276844   gamma___=       5.801383 meV   omega=    113.6243 meV
     lambda_tr(   3 )=       0.315547   gamma_tr=       6.612404 meV   omega=    113.6243 meV
     lambda___(   4 )=       0.284547   gamma___=       6.010634 meV   omega=    114.0791 meV
     lambda_tr(   4 )=       0.315791   gamma_tr=       6.670618 meV   omega=    114.0791 meV
     lambda___(   5 )=       0.284547   gamma___=       6.010634 meV   omega=    114.0791 meV
     lambda_tr(   5 )=       0.315791   gamma_tr=       6.670618 meV   omega=    114.0791 meV
     lambda___(   6 )=       0.197821   gamma___=       6.874497 meV   omega=    146.3214 meV
     lambda_tr(   6 )=       0.211522   gamma_tr=       7.350641 meV   omega=    146.3214 meV
     lambda___( tot )=       1.449712
     lambda_tr( tot )=       1.645918
     -------------------------------------------------------------------


     Number of (k,k+q) pairs on the Fermi surface:      125 out of      125


     ismear =     1 iq =      20 coord.:   0.00000  0.60000  0.80000 wt:   0.00800 Temp:  200.000K
     -------------------------------------------------------------------
     lambda___(   1 )=       0.117590   gamma___=       0.799860 meV   omega=     64.7358 meV
     lambda_tr(   1 )=      -0.186104   gamma_tr=      -1.265898 meV   omega=     64.7358 meV
     lambda___(   2 )=       0.110224   gamma___=       0.871435 meV   omega=     69.7916 meV
     lambda_tr(   2 )=      -0.026998   gamma_tr=      -0.213444 meV   omega=     69.7916 meV
     lambda___(   3 )=       0.157576   gamma___=       2.512343 meV   omega=     99.1101 meV
     lambda_tr(   3 )=       0.057536   gamma_tr=       0.917344 meV   omega=     99.1101 meV
     lambda___(   4 )=       0.161166   gamma___=       3.743389 meV   omega=    119.6241 meV
     lambda_tr(   4 )=       0.004404   gamma_tr=       0.102285 meV   omega=    119.6241 meV
     lambda___(   5 )=       0.139826   gamma___=       3.401413 meV   omega=    122.4218 meV
     lambda_tr(   5 )=       0.124209   gamma_tr=       3.021520 meV   omega=    122.4218 meV
     lambda___(   6 )=       0.257275   gamma___=       8.936729 meV   omega=    146.2898 meV
     lambda_tr(   6 )=       0.126976   gamma_tr=       4.410669 meV   omega=    146.2898 meV
     lambda___( tot )=       0.943657
     lambda_tr( tot )=       0.100025
     -------------------------------------------------------------------


     Number of (k,k+q) pairs on the Fermi surface:      125 out of      125


     ismear =     1 iq =      20 coord.:   0.00000  0.60000  0.80000 wt:   0.00800 Temp:  300.000K
     -------------------------------------------------------------------
     lambda___(   1 )=       0.181949   gamma___=       1.237635 meV   omega=     64.7358 meV
     lambda_tr(   1 )=      -0.061467   gamma_tr=      -0.418108 meV   omega=     64.7358 meV
     lambda___(   2 )=       0.112714   gamma___=       0.891124 meV   omega=     69.7916 meV
     lambda_tr(   2 )=       0.015701   gamma_tr=       0.124131 meV   omega=     69.7916 meV
     lambda___(   3 )=       0.161616   gamma___=       2.576759 meV   omega=     99.1101 meV
     lambda_tr(   3 )=       0.071899   gamma_tr=       1.146329 meV   omega=     99.1101 meV
     lambda___(   4 )=       0.206096   gamma___=       4.786966 meV   omega=    119.6241 meV
     lambda_tr(   4 )=       0.061182   gamma_tr=       1.421073 meV   omega=    119.6241 meV
     lambda___(   5 )=       0.174239   gamma___=       4.238553 meV   omega=    122.4218 meV
     lambda_tr(   5 )=       0.169528   gamma_tr=       4.123934 meV   omega=    122.4218 meV
     lambda___(   6 )=       0.263560   gamma___=       9.155058 meV   omega=    146.2898 meV
     lambda_tr(   6 )=       0.138055   gamma_tr=       4.795493 meV   omega=    146.2898 meV
     lambda___( tot )=       1.100174
     lambda_tr( tot )=       0.394897
     -------------------------------------------------------------------


     Number of (k,k+q) pairs on the Fermi surface:      125 out of      125


     ismear =     1 iq =      21 coord.:   0.00000  0.80000  0.00000 wt:   0.00800 Temp:  200.000K
     -------------------------------------------------------------------
     lambda___(   1 )=       0.082383   gamma___=       0.154109 meV   omega=     33.9483 meV
     lambda_tr(   1 )=       0.117619   gamma_tr=       0.220023 meV   omega=     33.9483 meV
     lambda___(   2 )=       0.082383   gamma___=       0.154109 meV   omega=     33.9483 meV
     lambda_tr(   2 )=       0.117619   gamma_tr=       0.220023 meV   omega=     33.9483 meV
     lambda___(   3 )=       0.263099   gamma___=       1.681583 meV   omega=     62.7513 meV
     lambda_tr(   3 )=       0.209903   gamma_tr=       1.341583 meV   omega=     62.7513 meV
     lambda___(   4 )=       0.172599   gamma___=       4.448732 meV   omega=    126.0150 meV
     lambda_tr(   4 )=       0.165026   gamma_tr=       4.253544 meV   omega=    126.0150 meV
     lambda___(   5 )=       0.172599   gamma___=       4.448732 meV   omega=    126.0150 meV
     lambda_tr(   5 )=       0.165026   gamma_tr=       4.253544 meV   omega=    126.0150 meV
     lambda___(   6 )=       0.626772   gamma___=      24.254130 meV   omega=    154.4049 meV
     lambda_tr(   6 )=       0.604533   gamma_tr=      23.393553 meV   omega=    154.4049 meV
     lambda___( tot )=       1.399835
     lambda_tr( tot )=       1.379727
     -------------------------------------------------------------------


     Number of (k,k+q) pairs on the Fermi surface:      125 out of      125


     ismear =     1 iq =      21 coord.:   0.00000  0.80000  0.00000 wt:   0.00800 Temp:  300.000K
     -------------------------------------------------------------------
     lambda___(   1 )=       0.188088   gamma___=       0.351844 meV   omega=     33.9483 meV
     lambda_tr(   1 )=       0.296433   gamma_tr=       0.554518 meV   omega=     33.9483 meV
     lambda___(   2 )=       0.188088   gamma___=       0.351844 meV   omega=     33.9483 meV
     lambda_tr(   2 )=       0.296433   gamma_tr=       0.554518 meV   omega=     33.9483 meV
     lambda___(   3 )=       0.277477   gamma___=       1.773484 meV   omega=     62.7513 meV
     lambda_tr(   3 )=       0.253365   gamma_tr=       1.619370 meV   omega=     62.7513 meV
     lambda___(   4 )=       0.229093   gamma___=       5.904862 meV   omega=    126.0150 meV
     lambda_tr(   4 )=       0.231162   gamma_tr=       5.958185 meV   omega=    126.0150 meV
     lambda___(   5 )=       0.229093   gamma___=       5.904862 meV   omega=    126.0150 meV
     lambda_tr(   5 )=       0.231162   gamma_tr=       5.958185 meV   omega=    126.0150 meV
     lambda___(   6 )=       0.635786   gamma___=      24.602929 meV   omega=    154.4049 meV
     lambda_tr(   6 )=       0.613172   gamma_tr=      23.727846 meV   omega=    154.4049 meV
     lambda___( tot )=       1.747625
     lambda_tr( tot )=       1.921727
     -------------------------------------------------------------------


     Number of (k,k+q) pairs on the Fermi surface:      125 out of      125


     ismear =     1 iq =      22 coord.:   0.00000  0.80000  0.20000 wt:   0.00800 Temp:  200.000K
     -------------------------------------------------------------------
     lambda___(   1 )=       0.023888   gamma___=       0.099459 meV   omega=     50.6476 meV
     lambda_tr(   1 )=       0.079273   gamma_tr=       0.330064 meV   omega=     50.6476 meV
     lambda___(   2 )=       0.087124   gamma___=       0.647065 meV   omega=     67.6439 meV
     lambda_tr(   2 )=       0.126509   gamma_tr=       0.939580 meV   omega=     67.6439 meV
     lambda___(   3 )=       0.183183   gamma___=       2.224109 meV   omega=     86.4886 meV
     lambda_tr(   3 )=       0.342706   gamma_tr=       4.160952 meV   omega=     86.4886 meV
     lambda___(   4 )=       0.274860   gamma___=       6.766065 meV   omega=    123.1503 meV
     lambda_tr(   4 )=       0.312424   gamma_tr=       7.690764 meV   omega=    123.1503 meV
     lambda___(   5 )=       0.094244   gamma___=       2.390286 meV   omega=    125.0035 meV
     lambda_tr(   5 )=       0.094924   gamma_tr=       2.407531 meV   omega=    125.0035 meV
     lambda___(   6 )=       0.290701   gamma___=      10.240089 meV   omega=    147.3166 meV
     lambda_tr(   6 )=       0.388808   gamma_tr=      13.695945 meV   omega=    147.3166 meV
     lambda___( tot )=       0.953999
     lambda_tr( tot )=       1.344645
     -------------------------------------------------------------------


     Number of (k,k+q) pairs on the Fermi surface:      125 out of      125


     ismear =     1 iq =      22 coord.:   0.00000  0.80000  0.20000 wt:   0.00800 Temp:  300.000K
     -------------------------------------------------------------------
     lambda___(   1 )=       0.019915   gamma___=       0.082919 meV   omega=     50.6476 meV
     lambda_tr(   1 )=       0.080798   gamma_tr=       0.336411 meV   omega=     50.6476 meV
     lambda___(   2 )=       0.085528   gamma___=       0.635214 meV   omega=     67.6439 meV
     lambda_tr(   2 )=       0.129872   gamma_tr=       0.964554 meV   omega=     67.6439 meV
     lambda___(   3 )=       0.179188   gamma___=       2.175604 meV   omega=     86.4886 meV
     lambda_tr(   3 )=       0.332467   gamma_tr=       4.036639 meV   omega=     86.4886 meV
     lambda___(   4 )=       0.290768   gamma___=       7.157673 meV   omega=    123.1503 meV
     lambda_tr(   4 )=       0.333275   gamma_tr=       8.204030 meV   omega=    123.1503 meV
     lambda___(   5 )=       0.108270   gamma___=       2.746036 meV   omega=    125.0035 meV
     lambda_tr(   5 )=       0.107167   gamma_tr=       2.718059 meV   omega=    125.0035 meV
     lambda___(   6 )=       0.290443   gamma___=      10.230988 meV   omega=    147.3166 meV
     lambda_tr(   6 )=       0.386390   gamma_tr=      13.610772 meV   omega=    147.3166 meV
     lambda___( tot )=       0.974112
     lambda_tr( tot )=       1.369969
     -------------------------------------------------------------------


     Number of (k,k+q) pairs on the Fermi surface:      125 out of      125


     ismear =     1 iq =      23 coord.:   0.00000  0.80000  0.40000 wt:   0.00800 Temp:  200.000K
     -------------------------------------------------------------------
     lambda___(   1 )=       0.192758   gamma___=       1.444414 meV   omega=     67.9458 meV
     lambda_tr(   1 )=       0.018670   gamma_tr=       0.139905 meV   omega=     67.9458 meV
     lambda___(   2 )=       0.202760   gamma___=       2.278348 meV   omega=     83.2036 meV
     lambda_tr(   2 )=       0.337991   gamma_tr=       3.797895 meV   omega=     83.2036 meV
     lambda___(   3 )=       0.404801   gamma___=       8.659625 meV   omega=    114.8026 meV
     lambda_tr(   3 )=       0.388781   gamma_tr=       8.316920 meV   omega=    114.8026 meV
     lambda___(   4 )=       0.205437   gamma___=       4.674830 meV   omega=    118.4042 meV
     lambda_tr(   4 )=       0.266245   gamma_tr=       6.058559 meV   omega=    118.4042 meV
     lambda___(   5 )=       0.165295   gamma___=       4.173941 meV   omega=    124.7287 meV
     lambda_tr(   5 )=       0.252732   gamma_tr=       6.381853 meV   omega=    124.7287 meV
     lambda___(   6 )=       0.146647   gamma___=       4.189880 meV   omega=    132.6745 meV
     lambda_tr(   6 )=       0.081696   gamma_tr=       2.334143 meV   omega=    132.6745 meV
     lambda___( tot )=       1.317698
     lambda_tr( tot )=       1.346116
     -------------------------------------------------------------------


     Number of (k,k+q) pairs on the Fermi surface:      125 out of      125


     ismear =     1 iq =      23 coord.:   0.00000  0.80000  0.40000 wt:   0.00800 Temp:  300.000K
     -------------------------------------------------------------------
     lambda___(   1 )=       0.187719   gamma___=       1.406653 meV   omega=     67.9458 meV
     lambda_tr(   1 )=       0.010445   gamma_tr=       0.078270 meV   omega=     67.9458 meV
     lambda___(   2 )=       0.213674   gamma___=       2.400986 meV   omega=     83.2036 meV
     lambda_tr(   2 )=       0.347102   gamma_tr=       3.900268 meV   omega=     83.2036 meV
     lambda___(   3 )=       0.424366   gamma___=       9.078164 meV   omega=    114.8026 meV
     lambda_tr(   3 )=       0.403762   gamma_tr=       8.637393 meV   omega=    114.8026 meV
     lambda___(   4 )=       0.229573   gamma___=       5.224064 meV   omega=    118.4042 meV
     lambda_tr(   4 )=       0.289619   gamma_tr=       6.590449 meV   omega=    118.4042 meV
     lambda___(   5 )=       0.181106   gamma___=       4.573188 meV   omega=    124.7287 meV
     lambda_tr(   5 )=       0.262870   gamma_tr=       6.637838 meV   omega=    124.7287 meV
     lambda___(   6 )=       0.152232   gamma___=       4.349466 meV   omega=    132.6745 meV
     lambda_tr(   6 )=       0.086481   gamma_tr=       2.470879 meV   omega=    132.6745 meV
     lambda___( tot )=       1.388671
     lambda_tr( tot )=       1.400280
     -------------------------------------------------------------------


     Number of (k,k+q) pairs on the Fermi surface:      125 out of      125


     ismear =     1 iq =      24 coord.:   0.00000  0.80000  0.60000 wt:   0.00800 Temp:  200.000K
     -------------------------------------------------------------------
     lambda___(   1 )=       0.117590   gamma___=       0.799857 meV   omega=     64.7358 meV
     lambda_tr(   1 )=      -0.186105   gamma_tr=      -1.265905 meV   omega=     64.7358 meV
     lambda___(   2 )=       0.110224   gamma___=       0.871434 meV   omega=     69.7916 meV
     lambda_tr(   2 )=      -0.026998   gamma_tr=      -0.213449 meV   omega=     69.7916 meV
     lambda___(   3 )=       0.157576   gamma___=       2.512345 meV   omega=     99.1101 meV
     lambda_tr(   3 )=       0.057536   gamma_tr=       0.917343 meV   omega=     99.1101 meV
[...]
       20        7     -0.5071    236.5684    641.5562      1.4650     -0.3174
       21        7     -4.1434    -58.1536    307.9827      1.0481     -0.0459
       22        7     -2.7331    -17.5940    158.0168      0.9206      0.0862
       23        7     -0.7168    154.5010    629.1446      1.4756     -0.3223
       24        7     -0.5071    236.5684    641.5562      1.4650     -0.3174
       25        7     -2.0461   -123.1933    310.4057      0.9433      0.0601
       26        7     -4.1434    -58.1536    307.9827      1.0481     -0.0459
       27        7     -2.0461   -123.1933    310.4057      0.9433      0.0601
       28        7     -0.5071    236.5684    641.5562      1.4650     -0.3174
       29        7     -0.7168    154.5010    629.1446      1.4756     -0.3223
       30        7     -2.7331    -17.5940    158.0168      0.9206      0.0862
       31        7     -2.0461   -123.1933    310.4057      0.9433      0.0601
       32        7     -4.1434    -53.3565    308.5956      1.0461     -0.0441
       33        7     -2.7331    -17.8419    155.6245      0.9217      0.0850
       34        7     -0.7168    152.9315    632.8908      1.4967     -0.3319
       35        7     -0.5071    239.1989    636.1327      1.4626     -0.3163
       36        7     -0.5071    236.5684    641.5562      1.4650     -0.3174
       37        7     -2.7331    -17.8419    155.6245      0.9217      0.0850
       38        7     -0.5071    238.7046    632.2172      1.4556     -0.3130
       39        7     -0.1047    400.5004    527.6597      1.1950     -0.1632
       40        7     -0.1047    397.1743    523.9669      1.1897     -0.1595
       41        7     -0.7168    154.5010    629.1446      1.4756     -0.3223
       42        7     -0.7168    152.9315    632.8908      1.4967     -0.3319
       43        7     -0.1047    400.5004    527.6595      1.1950     -0.1632
       44        7      2.1258    200.6143    292.6025      1.2468     -0.1980
       45        7     -0.1047    397.1744    523.9669      1.1897     -0.1595
       46        7     -2.7331    -17.5940    158.0168      0.9206      0.0862
       47        7     -0.5071    239.1989    636.1327      1.4626     -0.3163
       48        7     -0.1047    397.1743    523.9671      1.1897     -0.1595
       49        7     -0.1047    397.1744    523.9668      1.1897     -0.1595
       50        7     -0.5071    239.1989    636.1327      1.4626     -0.3163
       51        7     -3.4348    -29.2027    341.2842      1.1244     -0.1106
       52        7     -0.5071    236.5684    641.5562      1.4650     -0.3174
       53        7      2.7101    301.0504    170.8440      1.0192     -0.0188
       54        7      2.1258    203.9027    288.1095      1.2386     -0.1926
       55        7     -0.7168    154.5010    629.1446      1.4756     -0.3223
       56        7     -0.5071    236.5684    641.5562      1.4650     -0.3174
       57        7     -2.7331    -17.8419    155.6245      0.9217      0.0850
       58        7     -0.5071    238.7046    632.2172      1.4556     -0.3130
       59        7     -0.1047    400.5004    527.6597      1.1950     -0.1632
       60        7     -0.1047    397.1743    523.9669      1.1897     -0.1595
       61        7      2.7101    301.0504    170.8440      1.0192     -0.0188
       62        7     -0.5071    238.7046    632.2172      1.4556     -0.3130
       63        7     -3.4348    -22.9092    341.4837      1.1275     -0.1131
       64        7     -0.7168    156.3264    625.2273      1.4712     -0.3203
       65        7      2.1258    200.6143    292.6025      1.2468     -0.1980
       66        7      2.1258    203.9026    288.1095      1.2386     -0.1926
       67        7     -0.1047    400.5004    527.6597      1.1950     -0.1632
       68        7     -0.7168    156.3264    625.2273      1.4712     -0.3203
       69        7     -0.7168    156.3263    625.2273      1.4712     -0.3203
       70        7     -0.1047    400.5004    527.6597      1.1950     -0.1632
       71        7     -0.7168    154.5010    629.1446      1.4756     -0.3223
       72        7     -0.1047    397.1743    523.9669      1.1897     -0.1595
       73        7      2.1258    200.6144    292.6025      1.2468     -0.1980
       74        7     -0.1047    400.5004    527.6598      1.1950     -0.1632
       75        7     -0.7168    152.9316    632.8908      1.4967     -0.3319
       76        7     -3.4348    -29.2028    341.2842      1.1244     -0.1106
       77        7     -0.7168    154.5011    629.1447      1.4756     -0.3223
       78        7      2.1258    203.9026    288.1095      1.2386     -0.1926
       79        7      2.7101    301.0504    170.8440      1.0192     -0.0188
       80        7     -0.5071    236.5684    641.5562      1.4650     -0.3174
       81        7     -0.7168    154.5010    629.1447      1.4756     -0.3223
       82        7     -0.7168    152.9315    632.8908      1.4967     -0.3319
       83        7     -0.1047    400.5004    527.6595      1.1950     -0.1632
       84        7      2.1258    200.6143    292.6025      1.2468     -0.1980
       85        7     -0.1047    397.1743    523.9669      1.1897     -0.1595
       86        7      2.1258    203.9026    288.1095      1.2386     -0.1926
       87        7     -0.1047    400.5004    527.6597      1.1950     -0.1632
       88        7     -0.7168    156.3264    625.2273      1.4712     -0.3203
       89        7     -0.7168    156.3263    625.2273      1.4712     -0.3203
       90        7     -0.1047    400.5004    527.6596      1.1950     -0.1632
       91        7      2.7101    301.0504    170.8440      1.0192     -0.0188
       92        7      2.1258    200.6143    292.6025      1.2468     -0.1980
       93        7     -0.7168    156.3263    625.2273      1.4712     -0.3203
       94        7     -3.4348    -22.9092    341.4837      1.1275     -0.1131
       95        7     -0.5071    238.7046    632.2172      1.4556     -0.3130
       96        7     -0.5071    236.5684    641.5562      1.4650     -0.3174
       97        7     -0.1047    397.1743    523.9669      1.1897     -0.1595
       98        7     -0.1047    400.5004    527.6596      1.1950     -0.1632
       99        7     -0.5071    238.7046    632.2172      1.4556     -0.3130
      100        7     -2.7331    -17.8419    155.6245      0.9217      0.0850
      101        7     -4.1434    -58.1536    307.9827      1.0481     -0.0459
      102        7     -2.7331    -17.5940    158.0168      0.9206      0.0862
      103        7     -0.7168    154.5010    629.1447      1.4756     -0.3223
      104        7     -0.5071    236.5684    641.5562      1.4650     -0.3174
      105        7     -2.0461   -123.1933    310.4057      0.9433      0.0601
      106        7     -2.7331    -17.5940    158.0168      0.9206      0.0862
      107        7     -0.5071    239.1989    636.1327      1.4626     -0.3163
      108        7     -0.1047    397.1743    523.9671      1.1897     -0.1595
      109        7     -0.1047    397.1744    523.9668      1.1897     -0.1595
      110        7     -0.5071    239.1989    636.1327      1.4626     -0.3163
      111        7     -0.7168    154.5010    629.1446      1.4756     -0.3223
      112        7     -0.1047    397.1743    523.9669      1.1897     -0.1595
      113        7      2.1258    200.6144    292.6025      1.2468     -0.1980
      114        7     -0.1047    400.5004    527.6598      1.1950     -0.1632
      115        7     -0.7168    152.9316    632.8908      1.4967     -0.3319
      116        7     -0.5071    236.5684    641.5562      1.4650     -0.3174
      117        7     -0.1047    397.1744    523.9669      1.1897     -0.1595
      118        7     -0.1047    400.5004    527.6597      1.1950     -0.1632
      119        7     -0.5071    238.7046    632.2172      1.4556     -0.3130
      120        7     -2.7331    -17.8419    155.6245      0.9217      0.0850
      121        7     -2.0461   -123.1934    310.4057      0.9433      0.0601
      122        7     -0.5071    239.1989    636.1327      1.4626     -0.3163
      123        7     -0.7168    152.9316    632.8908      1.4967     -0.3319
      124        7     -2.7331    -17.8419    155.6245      0.9217      0.0850
      125        7     -4.1434    -53.3565    308.5956      1.0461     -0.0441
  
        1        8     -3.6303    -38.9665    152.1603      0.9986      0.0014
        2        8     -1.4582    -22.0632    659.5569      1.7642     -0.4332
        3        8      0.8843    289.7784    208.6246      1.0479     -0.0458
        4        8      0.8843    289.7785    208.6246      1.0479     -0.0458
        5        8     -1.4582    -22.0634    659.5567      1.7642     -0.4332
        6        8     -1.4582    -22.0633    659.5568      1.7642     -0.4332
        7        8     -2.0461   -123.1933    310.4057      0.9433      0.0601
        8        8     -0.4705    241.3117    700.6176      1.5460     -0.3532
        9        8      0.6580    264.5390    211.2068      1.0047     -0.0047
       10        8     -0.0746    403.7357    475.6784      1.1193     -0.1066
       11        8      0.8843    289.7784    208.6246      1.0479     -0.0458
       12        8     -0.4705    241.3118    700.6175      1.5460     -0.3532
       13        8      2.7101    301.0504    170.8440      1.0192     -0.0188
       14        8      2.2716    261.0870    302.8298      1.2329     -0.1889
       15        8      0.6580    264.5390    211.2068      1.0047     -0.0047
       16        8      0.8843    289.7784    208.6246      1.0479     -0.0458
       17        8      0.6580    264.5390    211.2068      1.0047     -0.0047
       18        8      2.2716    261.0870    302.8298      1.2329     -0.1889
       19        8      2.7101    301.0504    170.8440      1.0192     -0.0188
       20        8     -0.4705    241.3118    700.6176      1.5460     -0.3532
       21        8     -1.4582    -22.0633    659.5568      1.7642     -0.4332
       22        8     -0.0746    403.7357    475.6787      1.1193     -0.1066
       23        8      0.6580    264.5390    211.2069      1.0047     -0.0047
       24        8     -0.4705    241.3118    700.6175      1.5460     -0.3532
       25        8     -2.0461   -123.1933    310.4057      0.9433      0.0601
       26        8     -1.4582    -22.0633    659.5568      1.7642     -0.4332
       27        8     -2.0461   -123.1933    310.4057      0.9433      0.0601
       28        8     -0.4705    241.3117    700.6176      1.5460     -0.3532
       29        8      0.6580    264.5390    211.2068      1.0047     -0.0047
       30        8     -0.0746    403.7357    475.6784      1.1193     -0.1066
       31        8     -2.0461   -123.1933    310.4057      0.9433      0.0601
       32        8     -1.4582    -26.7417    646.5777      1.7267     -0.4209
       33        8     -0.0746    403.9523    477.3683      1.1192     -0.1065
       34        8      0.6580    261.4109    210.2824      1.0040     -0.0040
       35        8     -0.4705    238.5885    695.8747      1.5477     -0.3539
       36        8     -0.4705    241.3118    700.6176      1.5460     -0.3532
       37        8     -0.0746    403.9524    477.3682      1.1192     -0.1065
       38        8     -0.4705    240.6069    702.5999      1.5497     -0.3547
       39        8      1.9481    201.8167    240.5262      1.0899     -0.0825
       40        8      1.9481    199.8840    241.7307      1.0926     -0.0847
       41        8      0.6580    264.5390    211.2068      1.0047     -0.0047
       42        8      0.6580    261.4109    210.2823      1.0040     -0.0040
       43        8      1.9481    201.8167    240.5263      1.0899     -0.0825
       44        8      2.2716    258.7931    310.1414      1.2454     -0.1971
       45        8      1.9481    199.8839    241.7307      1.0926     -0.0847
       46        8     -0.0746    403.7357    475.6786      1.1193     -0.1066
       47        8     -0.4705    238.5884    695.8747      1.5477     -0.3539
       48        8      1.9481    199.8839    241.7307      1.0926     -0.0847
       49        8      1.9481    199.8840    241.7308      1.0926     -0.0847
       50        8     -0.4705    238.5884    695.8747      1.5477     -0.3539
       51        8      0.8843    289.7784    208.6246      1.0479     -0.0458
       52        8     -0.4705    241.3118    700.6175      1.5460     -0.3532
       53        8      2.7101    301.0504    170.8440      1.0192     -0.0188
       54        8      2.2716    261.0870    302.8298      1.2329     -0.1889
       55        8      0.6580    264.5390    211.2068      1.0047     -0.0047
       56        8     -0.4705    241.3118    700.6176      1.5460     -0.3532
       57        8     -0.0746    403.9524    477.3682      1.1192     -0.1065
       58        8     -0.4705    240.6069    702.5999      1.5497     -0.3547
       59        8      1.9481    201.8167    240.5262      1.0899     -0.0825
       60        8      1.9481    199.8840    241.7307      1.0926     -0.0847
       61        8      2.7101    301.0504    170.8440      1.0192     -0.0188
       62        8     -0.4705    240.6069    702.5999      1.5497     -0.3547
       63        8      0.8843    288.2395    205.9966      1.0430     -0.0412
       64        8      0.6580    263.4833    222.1230      1.0124     -0.0123
       65        8      2.2716    258.7931    310.1414      1.2454     -0.1971
       66        8      2.2716    261.0870    302.8298      1.2329     -0.1889
       67        8      1.9481    201.8167    240.5261      1.0899     -0.0825
       68        8      0.6580    263.4832    222.1230      1.0124     -0.0123
       69        8      0.6580    263.4833    222.1231      1.0124     -0.0123
       70        8      1.9481    201.8167    240.5262      1.0899     -0.0825
       71        8      0.6580    264.5390    211.2068      1.0047     -0.0047
       72        8      1.9481    199.8840    241.7308      1.0926     -0.0847
       73        8      2.2716    258.7931    310.1414      1.2454     -0.1971
       74        8      1.9481    201.8167    240.5261      1.0899     -0.0825
       75        8      0.6580    261.4109    210.2824      1.0040     -0.0040
       76        8      0.8843    289.7784    208.6246      1.0479     -0.0458
       77        8      0.6580    264.5390    211.2068      1.0047     -0.0047
       78        8      2.2716    261.0870    302.8298      1.2329     -0.1889
       79        8      2.7101    301.0504    170.8440      1.0192     -0.0188
       80        8     -0.4705    241.3117    700.6176      1.5460     -0.3532
       81        8      0.6580    264.5390    211.2068      1.0047     -0.0047
       82        8      0.6580    261.4109    210.2823      1.0040     -0.0040
       83        8      1.9481    201.8167    240.5263      1.0899     -0.0825
       84        8      2.2716    258.7931    310.1414      1.2454     -0.1971
       85        8      1.9481    199.8839    241.7307      1.0926     -0.0847
       86        8      2.2716    261.0870    302.8298      1.2329     -0.1889
       87        8      1.9481    201.8167    240.5261      1.0899     -0.0825
       88        8      0.6580    263.4832    222.1229      1.0124     -0.0123
       89        8      0.6580    263.4833    222.1230      1.0124     -0.0123
       90        8      1.9481    201.8167    240.5262      1.0899     -0.0825
       91        8      2.7101    301.0504    170.8440      1.0192     -0.0188
       92        8      2.2716    258.7931    310.1414      1.2454     -0.1971
       93        8      0.6580    263.4833    222.1230      1.0124     -0.0123
       94        8      0.8843    288.2395    205.9965      1.0430     -0.0412
       95        8     -0.4705    240.6069    702.5999      1.5497     -0.3547
       96        8     -0.4705    241.3118    700.6176      1.5460     -0.3532
       97        8      1.9481    199.8839    241.7307      1.0926     -0.0847
       98        8      1.9481    201.8167    240.5262      1.0899     -0.0825
       99        8     -0.4705    240.6069    702.5999      1.5497     -0.3547
      100        8     -0.0746    403.9523    477.3684      1.1192     -0.1065
      101        8     -1.4582    -22.0633    659.5568      1.7642     -0.4332
      102        8     -0.0746    403.7357    475.6787      1.1193     -0.1066
      103        8      0.6580    264.5390    211.2069      1.0047     -0.0047
      104        8     -0.4705    241.3118    700.6175      1.5460     -0.3532
      105        8     -2.0461   -123.1933    310.4057      0.9433      0.0601
      106        8     -0.0746    403.7357    475.6786      1.1193     -0.1066
      107        8     -0.4705    238.5884    695.8747      1.5477     -0.3539
      108        8      1.9481    199.8839    241.7307      1.0926     -0.0847
      109        8      1.9481    199.8840    241.7308      1.0926     -0.0847
      110        8     -0.4705    238.5884    695.8747      1.5477     -0.3539
      111        8      0.6580    264.5390    211.2068      1.0047     -0.0047
      112        8      1.9481    199.8840    241.7307      1.0926     -0.0847
      113        8      2.2716    258.7931    310.1414      1.2454     -0.1971
      114        8      1.9481    201.8167    240.5261      1.0899     -0.0825
      115        8      0.6580    261.4109    210.2824      1.0040     -0.0040
      116        8     -0.4705    241.3118    700.6176      1.5460     -0.3532
      117        8      1.9481    199.8839    241.7307      1.0926     -0.0847
      118        8      1.9481    201.8167    240.5262      1.0899     -0.0825
      119        8     -0.4705    240.6069    702.5999      1.5497     -0.3547
      120        8     -0.0746    403.9523    477.3684      1.1192     -0.1065
      121        8     -2.0461   -123.1934    310.4057      0.9433      0.0601
      122        8     -0.4705    238.5884    695.8747      1.5477     -0.3539
      123        8      0.6580    261.4109    210.2823      1.0040     -0.0040
      124        8     -0.0746    403.9523    477.3683      1.1192     -0.1065
      125        8     -1.4582    -26.7415    646.5779      1.7267     -0.4209
  
     ===================================================================
     Memory usage:  VmHWM =        65Mb
                   VmPeak =      2627Mb
     ===================================================================


     Unfolding on the coarse grid
     elphon_wrap  :      0.01s CPU      0.01s WALL (       1 calls)

     INITIALIZATION: 




     Electron-Phonon interpolation
     ephwann      :      4.98s CPU      5.12s WALL (       1 calls)
     ep-interp    :      4.58s CPU      4.70s WALL (     125 calls)
     PH SELF-ENER :      0.37s CPU      0.38s WALL (     250 calls)

     wigner_seitz :      0.31s CPU      0.31s WALL (       1 calls)
     rgd_blk_fine :      0.59s CPU      0.61s WALL (   15500 calls)
     DynW2B       :      0.01s CPU      0.01s WALL (     125 calls)
     HamW2B       :      0.37s CPU      0.38s WALL (   15875 calls)
     vmeW2B       :      1.64s CPU      1.70s WALL (   31375 calls)
     ephW2Bp      :      0.27s CPU      0.27s WALL (     125 calls)
     ephW2B       :      0.56s CPU      0.59s WALL (   15625 calls)
     selfen_elec  :      0.58s CPU      0.58s WALL (     125 calls)
     selfen_phon  :      0.40s CPU      0.40s WALL (     125 calls)


     MPI routines


     Total program execution
     EPW          :      4.99s CPU      5.13s WALL

     ===============================================================================
     The functionality-dependent EPW.bib file was created with suggested citations. 
     Please consider citing the papers listed in EPW.bib.                           
     ===============================================================================
                                                                                    
