
     Program PWSCF v.6.7MaX starts on  2Nov2021 at 11:51:59 

     This program is part of the open-source Quantum ESPRESSO suite
     for quantum simulation of materials; please cite
         "P. Giannozzi et al., J. Phys.:Condens. Matter 21 395502 (2009);
         "P. Giannozzi et al., J. Phys.:Condens. Matter 29 465901 (2017);
          URL http://www.quantum-espresso.org", 
     in publications or presentations arising from this work. More details at
     http://www.quantum-espresso.org/quote

     Parallel version (MPI), running on     2 processors

     MPI processes distributed on     1 nodes
     K-points division:     npool     =       2
     Reading input from nscf.in

     Current dimensions of program PWSCF are:
     Max number of different atomic species (ntypx) = 10
     Max number of k-points (npk) =  40000
     Max angular momentum in pseudopotentials (lmaxx) =  3

     Atomic positions and unit cell read from directory:
     temp/bn.save/
     Atomic positions from file used, from input discarded
 
     Message from routine read_pp_mesh:
     mesh size missing, using the one in header
     Message from routine read_pp_mesh:
     mesh size missing, using the one in header

     Subspace diagonalization in iterative solution of the eigenvalue problem:
     a serial algorithm will be used

 
     G-vector sticks info
     --------------------
     sticks:   dense  smooth     PW     G-vecs:    dense   smooth      PW
     Sum         439     439    151                 6231     6231    1243
 


     bravais-lattice index     =            2
     lattice parameter (alat)  =       6.8300  a.u.
     unit-cell volume          =      79.6530 (a.u.)^3
     number of atoms/cell      =            2
     number of atomic types    =            2
     number of electrons       =         8.00
     number of Kohn-Sham states=           12
     kinetic-energy cutoff     =      70.0000  Ry
     charge density cutoff     =     280.0000  Ry
     Exchange-correlation= SLA  PW   NOGX NOGC
                           (   1   4   0   0   0   0   0)

     celldm(1)=   6.830000  celldm(2)=   0.000000  celldm(3)=   0.000000
     celldm(4)=   0.000000  celldm(5)=   0.000000  celldm(6)=   0.000000

     crystal axes: (cart. coord. in units of alat)
               a(1) = (  -0.500000   0.000000   0.500000 )  
               a(2) = (   0.000000   0.500000   0.500000 )  
               a(3) = (  -0.500000   0.500000   0.000000 )  

     reciprocal axes: (cart. coord. in units 2 pi/alat)
               b(1) = ( -1.000000 -1.000000  1.000000 )  
               b(2) = (  1.000000  1.000000  1.000000 )  
               b(3) = ( -1.000000  1.000000 -1.000000 )  


     PseudoPot. # 1 for B  read from file:
     ./B.dojo.sr.ONCVv0.4.lda.standard.upf
     MD5 check sum: 69d4ef3dbc0509a37f66397c3ecc5321
     Pseudo is Norm-conserving + core correction, Zval =  3.0
     Generated using ONCVPSP code by D. R. Hamann
     Using radial grid of 1498 points,  4 beta functions with: 
                l(1) =   0
                l(2) =   0
                l(3) =   1
                l(4) =   1

     PseudoPot. # 2 for N  read from file:
     ./N.dojo.sr.ONCVv0.4.lda.standard.upf
     MD5 check sum: f7cfb052850314c53fa2901765c0b356
     Pseudo is Norm-conserving + core correction, Zval =  5.0
     Generated using ONCVPSP code by D. R. Hamann
     Using radial grid of 1058 points,  4 beta functions with: 
                l(1) =   0
                l(2) =   0
                l(3) =   1
                l(4) =   1

     atomic species   valence    mass     pseudopotential
        B              3.00    10.81100     B ( 1.00)
        N              5.00    14.00670     N ( 1.00)

     24 Sym. Ops. (no inversion) found (18 have fractional translation)


                                    s                        frac. trans.

      isym =  1     identity                                     

 cryst.   s( 1) = (     1          0          0      )
                  (     0          1          0      )
                  (     0          0          1      )

 cart.    s( 1) = (  1.0000000  0.0000000  0.0000000 )
                  (  0.0000000  1.0000000  0.0000000 )
                  (  0.0000000  0.0000000  1.0000000 )


      isym =  2     180 deg rotation - cart. axis [0,0,1]        

 cryst.   s( 2) = (     0          1         -1      )    f =(  0.0000000 )
                  (     1          0         -1      )       (  0.0000000 )
                  (     0          0         -1      )       (  0.5000000 )

 cart.    s( 2) = ( -1.0000000  0.0000000  0.0000000 )    f =( -0.2500000 )
                  (  0.0000000 -1.0000000  0.0000000 )       (  0.2500000 )
                  (  0.0000000  0.0000000  1.0000000 )       (  0.0000000 )


      isym =  3     180 deg rotation - cart. axis [0,1,0]        

 cryst.   s( 3) = (    -1          0          0      )    f =(  0.5000000 )
                  (    -1          0          1      )       (  0.0000000 )
                  (    -1          1          0      )       (  0.0000000 )

 cart.    s( 3) = ( -1.0000000  0.0000000  0.0000000 )    f =( -0.2500000 )
                  (  0.0000000  1.0000000  0.0000000 )       (  0.0000000 )
                  (  0.0000000  0.0000000 -1.0000000 )       (  0.2500000 )


      isym =  4     180 deg rotation - cart. axis [1,0,0]        

 cryst.   s( 4) = (     0         -1          1      )    f =(  0.0000000 )
                  (     0         -1          0      )       (  0.5000000 )
                  (     1         -1          0      )       (  0.0000000 )

 cart.    s( 4) = (  1.0000000  0.0000000  0.0000000 )    f =(  0.0000000 )
                  (  0.0000000 -1.0000000  0.0000000 )       (  0.2500000 )
                  (  0.0000000  0.0000000 -1.0000000 )       (  0.2500000 )


      isym =  5     120 deg rotation - cart. axis [-1,-1,-1]     

 cryst.   s( 5) = (    -1          0          1      )    f =(  0.5000000 )
                  (    -1          1          0      )       (  0.0000000 )
                  (    -1          0          0      )       (  0.0000000 )

 cart.    s( 5) = (  0.0000000  1.0000000  0.0000000 )    f =( -0.2500000 )
                  (  0.0000000  0.0000000  1.0000000 )       (  0.0000000 )
                  (  1.0000000  0.0000000  0.0000000 )       (  0.2500000 )


      isym =  6     120 deg rotation - cart. axis [-1,1,1]       

 cryst.   s( 6) = (     0          1          0      )
                  (     0          0          1      )
                  (     1          0          0      )

 cart.    s( 6) = (  0.0000000 -1.0000000  0.0000000 )
                  (  0.0000000  0.0000000  1.0000000 )
                  ( -1.0000000  0.0000000  0.0000000 )


      isym =  7     120 deg rotation - cart. axis [1,1,-1]       

 cryst.   s( 7) = (     1          0         -1      )    f =(  0.0000000 )
                  (     0          0         -1      )       (  0.0000000 )
                  (     0          1         -1      )       (  0.5000000 )

 cart.    s( 7) = (  0.0000000  1.0000000  0.0000000 )    f =( -0.2500000 )
                  (  0.0000000  0.0000000 -1.0000000 )       (  0.2500000 )
                  ( -1.0000000  0.0000000  0.0000000 )       (  0.0000000 )


      isym =  8     120 deg rotation - cart. axis [1,-1,1]       

 cryst.   s( 8) = (     0         -1          0      )    f =(  0.0000000 )
                  (     1         -1          0      )       (  0.5000000 )
                  (     0         -1          1      )       (  0.0000000 )

 cart.    s( 8) = (  0.0000000 -1.0000000  0.0000000 )    f =(  0.0000000 )
                  (  0.0000000  0.0000000 -1.0000000 )       (  0.2500000 )
                  (  1.0000000  0.0000000  0.0000000 )       (  0.2500000 )


      isym =  9     120 deg rotation - cart. axis [1,1,1]        

 cryst.   s( 9) = (     0          0         -1      )    f =(  0.0000000 )
                  (     0          1         -1      )       (  0.0000000 )
                  (     1          0         -1      )       (  0.5000000 )

 cart.    s( 9) = (  0.0000000  0.0000000  1.0000000 )    f =( -0.2500000 )
                  (  1.0000000  0.0000000  0.0000000 )       (  0.2500000 )
                  (  0.0000000  1.0000000  0.0000000 )       (  0.0000000 )


      isym = 10     120 deg rotation - cart. axis [-1,1,-1]      

 cryst.   s(10) = (    -1          1          0      )    f =(  0.5000000 )
                  (    -1          0          0      )       (  0.0000000 )
                  (    -1          0          1      )       (  0.0000000 )

 cart.    s(10) = (  0.0000000  0.0000000  1.0000000 )    f =( -0.2500000 )
                  ( -1.0000000  0.0000000  0.0000000 )       (  0.0000000 )
                  (  0.0000000 -1.0000000  0.0000000 )       (  0.2500000 )


      isym = 11     120 deg rotation - cart. axis [1,-1,-1]      

 cryst.   s(11) = (     0          0          1      )
                  (     1          0          0      )
                  (     0          1          0      )

 cart.    s(11) = (  0.0000000  0.0000000 -1.0000000 )
                  ( -1.0000000  0.0000000  0.0000000 )
                  (  0.0000000  1.0000000  0.0000000 )


      isym = 12     120 deg rotation - cart. axis [-1,-1,1]      

 cryst.   s(12) = (     1         -1          0      )    f =(  0.0000000 )
                  (     0         -1          1      )       (  0.5000000 )
                  (     0         -1          0      )       (  0.0000000 )

 cart.    s(12) = (  0.0000000  0.0000000 -1.0000000 )    f =(  0.0000000 )
                  (  1.0000000  0.0000000  0.0000000 )       (  0.2500000 )
                  (  0.0000000 -1.0000000  0.0000000 )       (  0.2500000 )


      isym = 13     inv. 180 deg rotation - cart. axis [1,1,0]   

 cryst.   s(13) = (     0          1          0      )
                  (     1          0          0      )
                  (     0          0          1      )

 cart.    s(13) = (  0.0000000 -1.0000000  0.0000000 )
                  ( -1.0000000  0.0000000  0.0000000 )
                  (  0.0000000  0.0000000  1.0000000 )


      isym = 14     inv. 180 deg rotation - cart. axis [1,-1,0]  

 cryst.   s(14) = (     1          0         -1      )    f =(  0.0000000 )
                  (     0          1         -1      )       (  0.0000000 )
                  (     0          0         -1      )       (  0.5000000 )

 cart.    s(14) = (  0.0000000  1.0000000  0.0000000 )    f =( -0.2500000 )
                  (  1.0000000  0.0000000  0.0000000 )       (  0.2500000 )
                  (  0.0000000  0.0000000  1.0000000 )       (  0.0000000 )


      isym = 15     inv.  90 deg rotation - cart. axis [0,0,-1]  

 cryst.   s(15) = (     0         -1          0      )    f =(  0.0000000 )
                  (     0         -1          1      )       (  0.5000000 )
                  (     1         -1          0      )       (  0.0000000 )

 cart.    s(15) = (  0.0000000 -1.0000000  0.0000000 )    f =(  0.0000000 )
                  (  1.0000000  0.0000000  0.0000000 )       (  0.2500000 )
                  (  0.0000000  0.0000000 -1.0000000 )       (  0.2500000 )


      isym = 16     inv.  90 deg rotation - cart. axis [0,0,1]   

 cryst.   s(16) = (    -1          0          1      )    f =(  0.5000000 )
                  (    -1          0          0      )       (  0.0000000 )
                  (    -1          1          0      )       (  0.0000000 )

 cart.    s(16) = (  0.0000000  1.0000000  0.0000000 )    f =( -0.2500000 )
                  ( -1.0000000  0.0000000  0.0000000 )       (  0.0000000 )
                  (  0.0000000  0.0000000 -1.0000000 )       (  0.2500000 )


      isym = 17     inv. 180 deg rotation - cart. axis [1,0,1]   

 cryst.   s(17) = (     1          0          0      )
                  (     0          0          1      )
                  (     0          1          0      )

 cart.    s(17) = (  0.0000000  0.0000000 -1.0000000 )
                  (  0.0000000  1.0000000  0.0000000 )
                  ( -1.0000000  0.0000000  0.0000000 )


      isym = 18     inv. 180 deg rotation - cart. axis [-1,0,1]  

 cryst.   s(18) = (    -1          0          0      )    f =(  0.5000000 )
                  (    -1          1          0      )       (  0.0000000 )
                  (    -1          0          1      )       (  0.0000000 )

 cart.    s(18) = (  0.0000000  0.0000000  1.0000000 )    f =( -0.2500000 )
                  (  0.0000000  1.0000000  0.0000000 )       (  0.0000000 )
                  (  1.0000000  0.0000000  0.0000000 )       (  0.2500000 )


      isym = 19     inv.  90 deg rotation - cart. axis [0,1,0]   

 cryst.   s(19) = (     0         -1          1      )    f =(  0.0000000 )
                  (     1         -1          0      )       (  0.5000000 )
                  (     0         -1          0      )       (  0.0000000 )

 cart.    s(19) = (  0.0000000  0.0000000 -1.0000000 )    f =(  0.0000000 )
                  (  0.0000000 -1.0000000  0.0000000 )       (  0.2500000 )
                  (  1.0000000  0.0000000  0.0000000 )       (  0.2500000 )


      isym = 20     inv.  90 deg rotation - cart. axis [0,-1,0]  

 cryst.   s(20) = (     0          1         -1      )    f =(  0.0000000 )
                  (     0          0         -1      )       (  0.0000000 )
                  (     1          0         -1      )       (  0.5000000 )

 cart.    s(20) = (  0.0000000  0.0000000  1.0000000 )    f =( -0.2500000 )
                  (  0.0000000 -1.0000000  0.0000000 )       (  0.2500000 )
                  ( -1.0000000  0.0000000  0.0000000 )       (  0.0000000 )


      isym = 21     inv. 180 deg rotation - cart. axis [0,1,1]   

 cryst.   s(21) = (     1         -1          0      )    f =(  0.0000000 )
                  (     0         -1          0      )       (  0.5000000 )
                  (     0         -1          1      )       (  0.0000000 )

 cart.    s(21) = (  1.0000000  0.0000000  0.0000000 )    f =(  0.0000000 )
                  (  0.0000000  0.0000000 -1.0000000 )       (  0.2500000 )
                  (  0.0000000 -1.0000000  0.0000000 )       (  0.2500000 )


      isym = 22     inv. 180 deg rotation - cart. axis [0,1,-1]  

 cryst.   s(22) = (     0          0          1      )
                  (     0          1          0      )
                  (     1          0          0      )

 cart.    s(22) = (  1.0000000  0.0000000  0.0000000 )
                  (  0.0000000  0.0000000  1.0000000 )
                  (  0.0000000  1.0000000  0.0000000 )


      isym = 23     inv.  90 deg rotation - cart. axis [-1,0,0]  

 cryst.   s(23) = (     0          0         -1      )    f =(  0.0000000 )
                  (     1          0         -1      )       (  0.0000000 )
                  (     0          1         -1      )       (  0.5000000 )

 cart.    s(23) = ( -1.0000000  0.0000000  0.0000000 )    f =( -0.2500000 )
                  (  0.0000000  0.0000000 -1.0000000 )       (  0.2500000 )
                  (  0.0000000  1.0000000  0.0000000 )       (  0.0000000 )


      isym = 24     inv.  90 deg rotation - cart. axis [1,0,0]   

 cryst.   s(24) = (    -1          1          0      )    f =(  0.5000000 )
                  (    -1          0          1      )       (  0.0000000 )
                  (    -1          0          0      )       (  0.0000000 )

 cart.    s(24) = ( -1.0000000  0.0000000  0.0000000 )    f =( -0.2500000 )
                  (  0.0000000  0.0000000  1.0000000 )       (  0.0000000 )
                  (  0.0000000 -1.0000000  0.0000000 )       (  0.2500000 )


     point group T_d (-43m) 
     there are  5 classes
     the character table:

       E     8C3   3C2   6S4   6s_d 
A_1    1.00  1.00  1.00  1.00  1.00
A_2    1.00  1.00  1.00 -1.00 -1.00
E      2.00 -1.00  2.00  0.00  0.00
T_1    3.00  0.00 -1.00  1.00 -1.00
T_2    3.00  0.00 -1.00 -1.00  1.00

     the symmetry operations in each class and the name of the first element:

     E        1
          identity                                               
     8C3      5    7    8    6   12    9   10   11
          120 deg rotation - cart. axis [-1,-1,-1]               
     3C2      2    3    4
          180 deg rotation - cart. axis [0,0,1]                  
     6S4     15   16   20   19   23   24
          inv.  90 deg rotation - cart. axis [0,0,-1]            
     6s_d    13   14   17   18   21   22
          inv. 180 deg rotation - cart. axis [1,1,0]             

   Cartesian axes

     site n.     atom                  positions (alat units)
         1           B   tau(   1) = (  -0.1250000   0.1250000   0.1250000  )
         2           N   tau(   2) = (   0.1250000  -0.1250000  -0.1250000  )

   Crystallographic axes

     site n.     atom                  positions (cryst. coord.)
         1           B   tau(   1) = (  0.1250000  0.1250000  0.1250000  )
         2           N   tau(   2) = ( -0.1250000 -0.1250000 -0.1250000  )

     number of k points=    64
                       cart. coord. in units 2pi/alat
        k(    1) = (   0.0000000   0.0000000   0.0000000), wk =   0.0312500
        k(    2) = (  -0.2500000   0.2500000  -0.2500000), wk =   0.0312500
        k(    3) = (  -0.5000000   0.5000000  -0.5000000), wk =   0.0312500
        k(    4) = (  -0.7500000   0.7500000  -0.7500000), wk =   0.0312500
        k(    5) = (   0.2500000   0.2500000   0.2500000), wk =   0.0312500
        k(    6) = (   0.0000000   0.5000000   0.0000000), wk =   0.0312500
        k(    7) = (  -0.2500000   0.7500000  -0.2500000), wk =   0.0312500
        k(    8) = (  -0.5000000   1.0000000  -0.5000000), wk =   0.0312500
        k(    9) = (   0.5000000   0.5000000   0.5000000), wk =   0.0312500
        k(   10) = (   0.2500000   0.7500000   0.2500000), wk =   0.0312500
        k(   11) = (   0.0000000   1.0000000   0.0000000), wk =   0.0312500
        k(   12) = (  -0.2500000   1.2500000  -0.2500000), wk =   0.0312500
        k(   13) = (   0.7500000   0.7500000   0.7500000), wk =   0.0312500
        k(   14) = (   0.5000000   1.0000000   0.5000000), wk =   0.0312500
        k(   15) = (   0.2500000   1.2500000   0.2500000), wk =   0.0312500
        k(   16) = (   0.0000000   1.5000000   0.0000000), wk =   0.0312500
        k(   17) = (  -0.2500000  -0.2500000   0.2500000), wk =   0.0312500
        k(   18) = (  -0.5000000   0.0000000   0.0000000), wk =   0.0312500
        k(   19) = (  -0.7500000   0.2500000  -0.2500000), wk =   0.0312500
        k(   20) = (  -1.0000000   0.5000000  -0.5000000), wk =   0.0312500
        k(   21) = (   0.0000000   0.0000000   0.5000000), wk =   0.0312500
        k(   22) = (  -0.2500000   0.2500000   0.2500000), wk =   0.0312500
        k(   23) = (  -0.5000000   0.5000000   0.0000000), wk =   0.0312500
        k(   24) = (  -0.7500000   0.7500000  -0.2500000), wk =   0.0312500
        k(   25) = (   0.2500000   0.2500000   0.7500000), wk =   0.0312500
        k(   26) = (   0.0000000   0.5000000   0.5000000), wk =   0.0312500
        k(   27) = (  -0.2500000   0.7500000   0.2500000), wk =   0.0312500
        k(   28) = (  -0.5000000   1.0000000   0.0000000), wk =   0.0312500
        k(   29) = (   0.5000000   0.5000000   1.0000000), wk =   0.0312500
        k(   30) = (   0.2500000   0.7500000   0.7500000), wk =   0.0312500
        k(   31) = (   0.0000000   1.0000000   0.5000000), wk =   0.0312500
        k(   32) = (  -0.2500000   1.2500000   0.2500000), wk =   0.0312500
        k(   33) = (  -0.5000000  -0.5000000   0.5000000), wk =   0.0312500
        k(   34) = (  -0.7500000  -0.2500000   0.2500000), wk =   0.0312500
        k(   35) = (  -1.0000000   0.0000000   0.0000000), wk =   0.0312500
        k(   36) = (  -1.2500000   0.2500000  -0.2500000), wk =   0.0312500
        k(   37) = (  -0.2500000  -0.2500000   0.7500000), wk =   0.0312500
        k(   38) = (  -0.5000000   0.0000000   0.5000000), wk =   0.0312500
        k(   39) = (  -0.7500000   0.2500000   0.2500000), wk =   0.0312500
        k(   40) = (  -1.0000000   0.5000000   0.0000000), wk =   0.0312500
        k(   41) = (   0.0000000   0.0000000   1.0000000), wk =   0.0312500
        k(   42) = (  -0.2500000   0.2500000   0.7500000), wk =   0.0312500
        k(   43) = (  -0.5000000   0.5000000   0.5000000), wk =   0.0312500
        k(   44) = (  -0.7500000   0.7500000   0.2500000), wk =   0.0312500
        k(   45) = (   0.2500000   0.2500000   1.2500000), wk =   0.0312500
        k(   46) = (   0.0000000   0.5000000   1.0000000), wk =   0.0312500
        k(   47) = (  -0.2500000   0.7500000   0.7500000), wk =   0.0312500
        k(   48) = (  -0.5000000   1.0000000   0.5000000), wk =   0.0312500
        k(   49) = (  -0.7500000  -0.7500000   0.7500000), wk =   0.0312500
        k(   50) = (  -1.0000000  -0.5000000   0.5000000), wk =   0.0312500
        k(   51) = (  -1.2500000  -0.2500000   0.2500000), wk =   0.0312500
        k(   52) = (  -1.5000000   0.0000000   0.0000000), wk =   0.0312500
        k(   53) = (  -0.5000000  -0.5000000   1.0000000), wk =   0.0312500
        k(   54) = (  -0.7500000  -0.2500000   0.7500000), wk =   0.0312500
        k(   55) = (  -1.0000000   0.0000000   0.5000000), wk =   0.0312500
        k(   56) = (  -1.2500000   0.2500000   0.2500000), wk =   0.0312500
        k(   57) = (  -0.2500000  -0.2500000   1.2500000), wk =   0.0312500
        k(   58) = (  -0.5000000   0.0000000   1.0000000), wk =   0.0312500
        k(   59) = (  -0.7500000   0.2500000   0.7500000), wk =   0.0312500
        k(   60) = (  -1.0000000   0.5000000   0.5000000), wk =   0.0312500
        k(   61) = (   0.0000000   0.0000000   1.5000000), wk =   0.0312500
        k(   62) = (  -0.2500000   0.2500000   1.2500000), wk =   0.0312500
        k(   63) = (  -0.5000000   0.5000000   1.0000000), wk =   0.0312500
        k(   64) = (  -0.7500000   0.7500000   0.7500000), wk =   0.0312500

                       cryst. coord.
        k(    1) = (   0.0000000   0.0000000   0.0000000), wk =   0.0312500
        k(    2) = (   0.0000000   0.0000000   0.2500000), wk =   0.0312500
        k(    3) = (   0.0000000   0.0000000   0.5000000), wk =   0.0312500
        k(    4) = (   0.0000000   0.0000000   0.7500000), wk =   0.0312500
        k(    5) = (   0.0000000   0.2500000   0.0000000), wk =   0.0312500
        k(    6) = (   0.0000000   0.2500000   0.2500000), wk =   0.0312500
        k(    7) = (   0.0000000   0.2500000   0.5000000), wk =   0.0312500
        k(    8) = (   0.0000000   0.2500000   0.7500000), wk =   0.0312500
        k(    9) = (   0.0000000   0.5000000   0.0000000), wk =   0.0312500
        k(   10) = (   0.0000000   0.5000000   0.2500000), wk =   0.0312500
        k(   11) = (   0.0000000   0.5000000   0.5000000), wk =   0.0312500
        k(   12) = (   0.0000000   0.5000000   0.7500000), wk =   0.0312500
        k(   13) = (   0.0000000   0.7500000   0.0000000), wk =   0.0312500
        k(   14) = (   0.0000000   0.7500000   0.2500000), wk =   0.0312500
        k(   15) = (   0.0000000   0.7500000   0.5000000), wk =   0.0312500
        k(   16) = (   0.0000000   0.7500000   0.7500000), wk =   0.0312500
        k(   17) = (   0.2500000   0.0000000   0.0000000), wk =   0.0312500
        k(   18) = (   0.2500000   0.0000000   0.2500000), wk =   0.0312500
        k(   19) = (   0.2500000   0.0000000   0.5000000), wk =   0.0312500
        k(   20) = (   0.2500000   0.0000000   0.7500000), wk =   0.0312500
        k(   21) = (   0.2500000   0.2500000   0.0000000), wk =   0.0312500
        k(   22) = (   0.2500000   0.2500000   0.2500000), wk =   0.0312500
        k(   23) = (   0.2500000   0.2500000   0.5000000), wk =   0.0312500
        k(   24) = (   0.2500000   0.2500000   0.7500000), wk =   0.0312500
        k(   25) = (   0.2500000   0.5000000   0.0000000), wk =   0.0312500
        k(   26) = (   0.2500000   0.5000000   0.2500000), wk =   0.0312500
        k(   27) = (   0.2500000   0.5000000   0.5000000), wk =   0.0312500
        k(   28) = (   0.2500000   0.5000000   0.7500000), wk =   0.0312500
        k(   29) = (   0.2500000   0.7500000   0.0000000), wk =   0.0312500
        k(   30) = (   0.2500000   0.7500000   0.2500000), wk =   0.0312500
        k(   31) = (   0.2500000   0.7500000   0.5000000), wk =   0.0312500
        k(   32) = (   0.2500000   0.7500000   0.7500000), wk =   0.0312500
        k(   33) = (   0.5000000   0.0000000   0.0000000), wk =   0.0312500
        k(   34) = (   0.5000000   0.0000000   0.2500000), wk =   0.0312500
        k(   35) = (   0.5000000   0.0000000   0.5000000), wk =   0.0312500
        k(   36) = (   0.5000000   0.0000000   0.7500000), wk =   0.0312500
        k(   37) = (   0.5000000   0.2500000   0.0000000), wk =   0.0312500
        k(   38) = (   0.5000000   0.2500000   0.2500000), wk =   0.0312500
        k(   39) = (   0.5000000   0.2500000   0.5000000), wk =   0.0312500
        k(   40) = (   0.5000000   0.2500000   0.7500000), wk =   0.0312500
        k(   41) = (   0.5000000   0.5000000   0.0000000), wk =   0.0312500
        k(   42) = (   0.5000000   0.5000000   0.2500000), wk =   0.0312500
        k(   43) = (   0.5000000   0.5000000   0.5000000), wk =   0.0312500
        k(   44) = (   0.5000000   0.5000000   0.7500000), wk =   0.0312500
        k(   45) = (   0.5000000   0.7500000   0.0000000), wk =   0.0312500
        k(   46) = (   0.5000000   0.7500000   0.2500000), wk =   0.0312500
        k(   47) = (   0.5000000   0.7500000   0.5000000), wk =   0.0312500
        k(   48) = (   0.5000000   0.7500000   0.7500000), wk =   0.0312500
        k(   49) = (   0.7500000   0.0000000   0.0000000), wk =   0.0312500
        k(   50) = (   0.7500000   0.0000000   0.2500000), wk =   0.0312500
        k(   51) = (   0.7500000   0.0000000   0.5000000), wk =   0.0312500
        k(   52) = (   0.7500000   0.0000000   0.7500000), wk =   0.0312500
        k(   53) = (   0.7500000   0.2500000   0.0000000), wk =   0.0312500
        k(   54) = (   0.7500000   0.2500000   0.2500000), wk =   0.0312500
        k(   55) = (   0.7500000   0.2500000   0.5000000), wk =   0.0312500
        k(   56) = (   0.7500000   0.2500000   0.7500000), wk =   0.0312500
        k(   57) = (   0.7500000   0.5000000   0.0000000), wk =   0.0312500
        k(   58) = (   0.7500000   0.5000000   0.2500000), wk =   0.0312500
        k(   59) = (   0.7500000   0.5000000   0.5000000), wk =   0.0312500
        k(   60) = (   0.7500000   0.5000000   0.7500000), wk =   0.0312500
        k(   61) = (   0.7500000   0.7500000   0.0000000), wk =   0.0312500
        k(   62) = (   0.7500000   0.7500000   0.2500000), wk =   0.0312500
        k(   63) = (   0.7500000   0.7500000   0.5000000), wk =   0.0312500
        k(   64) = (   0.7500000   0.7500000   0.7500000), wk =   0.0312500

     Dense  grid:     6231 G-vectors     FFT dimensions: (  30,  30,  30)

     Dynamical RAM for                 wfc:       0.14 MB

     Dynamical RAM for     wfc (w. buffer):       0.14 MB

     Dynamical RAM for           str. fact:       0.19 MB

     Dynamical RAM for           local pot:       0.00 MB

     Dynamical RAM for          nlocal pot:       0.19 MB

     Dynamical RAM for                qrad:       0.77 MB

     Dynamical RAM for          rho,v,vnew:       0.90 MB

     Dynamical RAM for           G-vectors:       0.40 MB

     Dynamical RAM for          h,s,v(r/c):       0.03 MB

     Dynamical RAM for          <psi|beta>:       0.00 MB

     Dynamical RAM for                 psi:       0.29 MB

     Dynamical RAM for                hpsi:       0.29 MB

     Dynamical RAM for      wfcinit/wfcrot:       0.29 MB

     Estimated static dynamical RAM per process >       3.92 MB

     Estimated max dynamical RAM per process >       4.52 MB

     Estimated total dynamical RAM >       9.05 MB

     The potential is recalculated from file :
     temp/bn.save/charge-density

     Starting wfcs are    8 randomized atomic wfcs +    4 random wfcs

     Band Structure Calculation
     Davidson diagonalization with overlap

     Computing kpt #:     1  of    32 on this pool
     total cpu time spent up to now is        0.7 secs

     Computing kpt #:     2  of    32 on this pool
     total cpu time spent up to now is        0.8 secs

     Computing kpt #:     3  of    32 on this pool
     total cpu time spent up to now is        0.9 secs

     Computing kpt #:     4  of    32 on this pool
     total cpu time spent up to now is        1.1 secs

     Computing kpt #:     5  of    32 on this pool
     total cpu time spent up to now is        1.2 secs

     Computing kpt #:     6  of    32 on this pool
     total cpu time spent up to now is        1.4 secs

     Computing kpt #:     7  of    32 on this pool
     total cpu time spent up to now is        1.5 secs

     Computing kpt #:     8  of    32 on this pool
     total cpu time spent up to now is        1.6 secs

     Computing kpt #:     9  of    32 on this pool
     total cpu time spent up to now is        1.7 secs

     Computing kpt #:    10  of    32 on this pool
     total cpu time spent up to now is        1.9 secs

     Computing kpt #:    11  of    32 on this pool
     total cpu time spent up to now is        2.0 secs

     Computing kpt #:    12  of    32 on this pool
     total cpu time spent up to now is        2.1 secs

     Computing kpt #:    13  of    32 on this pool
     total cpu time spent up to now is        2.3 secs

     Computing kpt #:    14  of    32 on this pool
     total cpu time spent up to now is        2.4 secs

     Computing kpt #:    15  of    32 on this pool
     total cpu time spent up to now is        2.5 secs

     Computing kpt #:    16  of    32 on this pool
     total cpu time spent up to now is        2.7 secs

     Computing kpt #:    17  of    32 on this pool
     total cpu time spent up to now is        2.8 secs

     Computing kpt #:    18  of    32 on this pool
     total cpu time spent up to now is        2.9 secs

     Computing kpt #:    19  of    32 on this pool
     total cpu time spent up to now is        3.0 secs

     Computing kpt #:    20  of    32 on this pool
     total cpu time spent up to now is        3.2 secs

     Computing kpt #:    21  of    32 on this pool
     total cpu time spent up to now is        3.3 secs

     Computing kpt #:    22  of    32 on this pool
     total cpu time spent up to now is        3.5 secs

     Computing kpt #:    23  of    32 on this pool
     total cpu time spent up to now is        3.6 secs

     Computing kpt #:    24  of    32 on this pool
     total cpu time spent up to now is        3.7 secs

     Computing kpt #:    25  of    32 on this pool
     total cpu time spent up to now is        3.8 secs

     Computing kpt #:    26  of    32 on this pool
     total cpu time spent up to now is        4.0 secs

     Computing kpt #:    27  of    32 on this pool
     total cpu time spent up to now is        4.1 secs

     Computing kpt #:    28  of    32 on this pool
     total cpu time spent up to now is        4.2 secs

     Computing kpt #:    29  of    32 on this pool
     total cpu time spent up to now is        4.4 secs

     Computing kpt #:    30  of    32 on this pool
     total cpu time spent up to now is        4.5 secs

     Computing kpt #:    31  of    32 on this pool
     total cpu time spent up to now is        4.6 secs

     Computing kpt #:    32  of    32 on this pool
     total cpu time spent up to now is        4.8 secs

     ethr =  1.25E-12,  avg # of iterations = 23.5

     total cpu time spent up to now is        4.8 secs

     End of band structure calculation

          k = 0.0000 0.0000 0.0000 (   749 PWs)   bands (ev):

    -9.1495  10.9216  10.9216  10.9216  19.6703  19.6703  19.6703  21.3697
    35.4041  39.0945  39.0945  39.1556

          k =-0.2500 0.2500-0.2500 (   797 PWs)   bands (ev):

    -7.6614   5.4685   9.7823   9.7823  20.6078  21.1847  21.1847  24.3973
    34.0501  34.6273  34.6273  38.5523

          k =-0.5000 0.5000-0.5000 (   778 PWs)   bands (ev):

    -4.8568   0.2015   8.9657   8.9657  21.1906  21.5646  21.5646  25.9358
    34.0185  37.4885  37.7374  37.7374

          k =-0.7500 0.7500-0.7500 (   797 PWs)   bands (ev):

    -7.6614   5.4685   9.7823   9.7823  20.6078  21.1847  21.1847  24.3973
    34.0501  34.6273  34.6273  38.5523

          k = 0.2500 0.2500 0.2500 (   797 PWs)   bands (ev):

    -7.6614   5.4685   9.7823   9.7823  20.6078  21.1847  21.1847  24.3973
    34.0501  34.6273  34.6273  38.5523

          k = 0.0000 0.5000 0.0000 (   817 PWs)   bands (ev):

    -7.1739   7.0147   7.8873   7.8873  17.6721  22.4824  24.2441  24.2441
    29.0630  37.8098  41.9482  44.1320

          k =-0.2500 0.7500-0.2500 (   788 PWs)   bands (ev):

    -4.4250   2.1774   5.7725   7.2399  18.4216  23.9603  25.2619  25.4659
    30.5859  37.1473  39.5396  42.9424

          k =-0.5000 1.0000-0.5000 (   792 PWs)   bands (ev):

    -5.4503   3.3662   5.3233   8.8107  20.5907  22.9964  23.7103  25.3923
    32.1154  33.0705  37.4521  44.6287

          k = 0.5000 0.5000 0.5000 (   778 PWs)   bands (ev):

    -4.8568   0.2015   8.9657   8.9657  21.1906  21.5646  21.5646  25.9358
    34.0185  37.4885  37.7374  37.7374

          k = 0.2500 0.7500 0.2500 (   788 PWs)   bands (ev):

    -4.4250   2.1774   5.7725   7.2399  18.4216  23.9603  25.2619  25.4659
    30.5859  37.1473  39.5396  42.9424

          k = 0.0000 1.0000 0.0000 (   790 PWs)   bands (ev):

    -3.4776   2.0314   5.9834   5.9834  15.3385  20.1759  28.6181  28.6181
    31.4044  37.8874  44.5631  44.5631

          k =-0.2500 1.2500-0.2500 (   788 PWs)   bands (ev):

    -4.4250   2.1774   5.7725   7.2399  18.4216  23.9603  25.2619  25.4659
    30.5859  37.1473  39.5396  42.9424

          k = 0.7500 0.7500 0.7500 (   797 PWs)   bands (ev):

    -7.6614   5.4685   9.7823   9.7823  20.6078  21.1847  21.1847  24.3973
    34.0501  34.6273  34.6273  38.5523

          k = 0.5000 1.0000 0.5000 (   792 PWs)   bands (ev):

    -5.4503   3.3662   5.3233   8.8107  20.5907  22.9964  23.7103  25.3923
    32.1154  33.0705  37.4521  44.6287

          k = 0.2500 1.2500 0.2500 (   788 PWs)   bands (ev):

    -4.4250   2.1774   5.7725   7.2399  18.4216  23.9603  25.2619  25.4659
    30.5859  37.1473  39.5396  42.9424

          k = 0.0000 1.5000 0.0000 (   817 PWs)   bands (ev):

    -7.1739   7.0147   7.8873   7.8873  17.6721  22.4824  24.2441  24.2441
    29.0630  37.8098  41.9482  44.1320

          k =-0.2500-0.2500 0.2500 (   797 PWs)   bands (ev):

    -7.6614   5.4685   9.7823   9.7823  20.6078  21.1847  21.1847  24.3973
    34.0501  34.6273  34.6273  38.5523

          k =-0.5000 0.0000 0.0000 (   817 PWs)   bands (ev):

    -7.1739   7.0147   7.8873   7.8873  17.6721  22.4824  24.2441  24.2441
    29.0630  37.8098  41.9482  44.1320

          k =-0.7500 0.2500-0.2500 (   788 PWs)   bands (ev):

    -4.4250   2.1774   5.7725   7.2399  18.4216  23.9603  25.2619  25.4659
    30.5859  37.1473  39.5396  42.9424

          k =-1.0000 0.5000-0.5000 (   792 PWs)   bands (ev):

    -5.4503   3.3662   5.3233   8.8107  20.5907  22.9964  23.7103  25.3923
    32.1154  33.0705  37.4521  44.6287

          k = 0.0000 0.0000 0.5000 (   817 PWs)   bands (ev):

    -7.1739   7.0147   7.8873   7.8873  17.6721  22.4824  24.2441  24.2441
    29.0630  37.8098  41.9482  44.1320

          k =-0.2500 0.2500 0.2500 (   797 PWs)   bands (ev):

    -7.6614   5.4685   9.7823   9.7823  20.6078  21.1847  21.1847  24.3973
    34.0501  34.6273  34.6273  38.5523

          k =-0.5000 0.5000 0.0000 (   792 PWs)   bands (ev):

    -5.4503   3.3662   5.3233   8.8107  20.5907  22.9964  23.7103  25.3923
    32.1154  33.0705  37.4521  44.6287

          k =-0.7500 0.7500-0.2500 (   788 PWs)   bands (ev):

    -4.4250   2.1774   5.7725   7.2399  18.4216  23.9603  25.2619  25.4659
    30.5859  37.1473  39.5396  42.9424

          k = 0.2500 0.2500 0.7500 (   788 PWs)   bands (ev):

    -4.4250   2.1774   5.7725   7.2399  18.4216  23.9603  25.2619  25.4659
    30.5859  37.1473  39.5396  42.9424

          k = 0.0000 0.5000 0.5000 (   792 PWs)   bands (ev):

    -5.4503   3.3662   5.3233   8.8107  20.5907  22.9964  23.7103  25.3923
    32.1154  33.0705  37.4521  44.6287

          k =-0.2500 0.7500 0.2500 (   788 PWs)   bands (ev):

    -4.4250   2.1774   5.7725   7.2399  18.4216  23.9603  25.2619  25.4659
    30.5859  37.1473  39.5396  42.9424

          k =-0.5000 1.0000 0.0000 (   772 PWs)   bands (ev):

    -3.1440   3.4079   3.8897   4.3524  20.4031  24.1960  25.2809  25.6063
    29.9545  36.3004  40.3555  44.2250

          k = 0.5000 0.5000 1.0000 (   792 PWs)   bands (ev):

    -5.4503   3.3662   5.3233   8.8107  20.5907  22.9964  23.7103  25.3923
    32.1154  33.0705  37.4521  44.6287

          k = 0.2500 0.7500 0.7500 (   788 PWs)   bands (ev):

    -4.4250   2.1774   5.7725   7.2399  18.4216  23.9603  25.2619  25.4659
    30.5859  37.1473  39.5396  42.9424

          k = 0.0000 1.0000 0.5000 (   772 PWs)   bands (ev):

    -3.1440   3.4079   3.8897   4.3524  20.4031  24.1960  25.2809  25.6063
    29.9545  36.3004  40.3555  44.2250

          k =-0.2500 1.2500 0.2500 (   788 PWs)   bands (ev):

    -4.4250   2.1774   5.7725   7.2399  18.4216  23.9603  25.2619  25.4659
    30.5859  37.1473  39.5396  42.9424

          k =-0.5000-0.5000 0.5000 (   778 PWs)   bands (ev):

    -4.8568   0.2015   8.9657   8.9657  21.1906  21.5646  21.5646  25.9358
    34.0185  37.4885  37.7374  37.7374

          k =-0.7500-0.2500 0.2500 (   788 PWs)   bands (ev):

    -4.4250   2.1774   5.7725   7.2399  18.4216  23.9603  25.2619  25.4659
    30.5859  37.1473  39.5396  42.9424

          k =-1.0000 0.0000 0.0000 (   790 PWs)   bands (ev):

    -3.4776   2.0314   5.9834   5.9834  15.3385  20.1759  28.6181  28.6181
    31.4044  37.8874  44.5631  44.5631

          k =-1.2500 0.2500-0.2500 (   788 PWs)   bands (ev):

    -4.4250   2.1774   5.7725   7.2399  18.4216  23.9603  25.2619  25.4659
    30.5859  37.1473  39.5396  42.9424

          k =-0.2500-0.2500 0.7500 (   788 PWs)   bands (ev):

    -4.4250   2.1774   5.7725   7.2399  18.4216  23.9603  25.2619  25.4659
    30.5859  37.1473  39.5396  42.9424

          k =-0.5000 0.0000 0.5000 (   792 PWs)   bands (ev):

    -5.4503   3.3662   5.3233   8.8107  20.5907  22.9964  23.7103  25.3923
    32.1154  33.0705  37.4521  44.6287

          k =-0.7500 0.2500 0.2500 (   788 PWs)   bands (ev):

    -4.4250   2.1774   5.7725   7.2399  18.4216  23.9603  25.2619  25.4659
    30.5859  37.1473  39.5396  42.9424

          k =-1.0000 0.5000 0.0000 (   772 PWs)   bands (ev):

    -3.1440   3.4079   3.8897   4.3524  20.4031  24.1960  25.2809  25.6063
    29.9545  36.3004  40.3555  44.2250

          k = 0.0000 0.0000 1.0000 (   790 PWs)   bands (ev):

    -3.4776   2.0314   5.9834   5.9834  15.3385  20.1759  28.6181  28.6181
    31.4044  37.8874  44.5631  44.5631

          k =-0.2500 0.2500 0.7500 (   788 PWs)   bands (ev):

    -4.4250   2.1774   5.7725   7.2399  18.4216  23.9603  25.2619  25.4659
    30.5859  37.1473  39.5396  42.9424

          k =-0.5000 0.5000 0.5000 (   778 PWs)   bands (ev):

    -4.8568   0.2015   8.9657   8.9657  21.1906  21.5646  21.5646  25.9358
    34.0185  37.4885  37.7374  37.7374

          k =-0.7500 0.7500 0.2500 (   788 PWs)   bands (ev):

    -4.4250   2.1774   5.7725   7.2399  18.4216  23.9603  25.2619  25.4659
    30.5859  37.1473  39.5396  42.9424

          k = 0.2500 0.2500 1.2500 (   788 PWs)   bands (ev):

    -4.4250   2.1774   5.7725   7.2399  18.4216  23.9603  25.2619  25.4659
    30.5859  37.1473  39.5396  42.9424

          k = 0.0000 0.5000 1.0000 (   772 PWs)   bands (ev):

    -3.1440   3.4079   3.8897   4.3524  20.4031  24.1960  25.2809  25.6063
    29.9545  36.3004  40.3555  44.2250

          k =-0.2500 0.7500 0.7500 (   788 PWs)   bands (ev):

    -4.4250   2.1774   5.7725   7.2399  18.4216  23.9603  25.2619  25.4659
    30.5859  37.1473  39.5396  42.9424

          k =-0.5000 1.0000 0.5000 (   792 PWs)   bands (ev):

    -5.4503   3.3662   5.3233   8.8107  20.5907  22.9964  23.7103  25.3923
    32.1154  33.0705  37.4521  44.6287

          k =-0.7500-0.7500 0.7500 (   797 PWs)   bands (ev):

    -7.6614   5.4685   9.7823   9.7823  20.6078  21.1847  21.1847  24.3973
    34.0501  34.6273  34.6273  38.5523

          k =-1.0000-0.5000 0.5000 (   792 PWs)   bands (ev):

    -5.4503   3.3662   5.3233   8.8107  20.5907  22.9964  23.7103  25.3923
    32.1154  33.0705  37.4521  44.6287

          k =-1.2500-0.2500 0.2500 (   788 PWs)   bands (ev):

    -4.4250   2.1774   5.7725   7.2399  18.4216  23.9603  25.2619  25.4659
    30.5859  37.1473  39.5396  42.9424

          k =-1.5000 0.0000 0.0000 (   817 PWs)   bands (ev):

    -7.1739   7.0147   7.8873   7.8873  17.6721  22.4824  24.2441  24.2441
    29.0630  37.8098  41.9482  44.1320

          k =-0.5000-0.5000 1.0000 (   792 PWs)   bands (ev):

    -5.4503   3.3662   5.3233   8.8107  20.5907  22.9964  23.7103  25.3923
    32.1154  33.0705  37.4521  44.6287

          k =-0.7500-0.2500 0.7500 (   788 PWs)   bands (ev):

    -4.4250   2.1774   5.7725   7.2399  18.4216  23.9603  25.2619  25.4659
    30.5859  37.1473  39.5396  42.9424

          k =-1.0000 0.0000 0.5000 (   772 PWs)   bands (ev):

    -3.1440   3.4079   3.8897   4.3524  20.4031  24.1960  25.2809  25.6063
    29.9545  36.3004  40.3555  44.2250

          k =-1.2500 0.2500 0.2500 (   788 PWs)   bands (ev):

    -4.4250   2.1774   5.7725   7.2399  18.4216  23.9603  25.2619  25.4659
    30.5859  37.1473  39.5396  42.9424

          k =-0.2500-0.2500 1.2500 (   788 PWs)   bands (ev):

    -4.4250   2.1774   5.7725   7.2399  18.4216  23.9603  25.2619  25.4659
    30.5859  37.1473  39.5396  42.9424

          k =-0.5000 0.0000 1.0000 (   772 PWs)   bands (ev):

    -3.1440   3.4079   3.8897   4.3524  20.4031  24.1960  25.2809  25.6063
    29.9545  36.3004  40.3555  44.2250

          k =-0.7500 0.2500 0.7500 (   788 PWs)   bands (ev):

    -4.4250   2.1774   5.7725   7.2399  18.4216  23.9603  25.2619  25.4659
    30.5859  37.1473  39.5396  42.9424

          k =-1.0000 0.5000 0.5000 (   792 PWs)   bands (ev):

    -5.4503   3.3662   5.3233   8.8107  20.5907  22.9964  23.7103  25.3923
    32.1154  33.0705  37.4521  44.6287

          k = 0.0000 0.0000 1.5000 (   817 PWs)   bands (ev):

    -7.1739   7.0147   7.8873   7.8873  17.6721  22.4824  24.2441  24.2441
    29.0630  37.8098  41.9482  44.1320

          k =-0.2500 0.2500 1.2500 (   788 PWs)   bands (ev):

    -4.4250   2.1774   5.7725   7.2399  18.4216  23.9603  25.2619  25.4659
    30.5859  37.1473  39.5396  42.9424

          k =-0.5000 0.5000 1.0000 (   792 PWs)   bands (ev):

    -5.4503   3.3662   5.3233   8.8107  20.5907  22.9964  23.7103  25.3923
    32.1154  33.0705  37.4521  44.6287

          k =-0.7500 0.7500 0.7500 (   797 PWs)   bands (ev):

    -7.6614   5.4685   9.7823   9.7823  20.6078  21.1847  21.1847  24.3973
    34.0501  34.6273  34.6273  38.5523

     Writing output data file temp/bn.save/
 
     init_run     :      0.07s CPU      0.09s WALL (       1 calls)
     electrons    :      4.31s CPU      4.36s WALL (       1 calls)

     Called by init_run:
     wfcinit      :      0.00s CPU      0.00s WALL (       1 calls)
     wfcinit:atom :      0.00s CPU      0.00s WALL (      32 calls)
     wfcinit:wfcr :      0.21s CPU      0.21s WALL (      32 calls)
     potinit      :      0.01s CPU      0.01s WALL (       1 calls)
     hinit0       :      0.05s CPU      0.06s WALL (       1 calls)

     Called by electrons:
     c_bands      :      4.31s CPU      4.36s WALL (       1 calls)
     v_of_rho     :      0.01s CPU      0.01s WALL (       1 calls)
     v_h          :      0.00s CPU      0.00s WALL (       1 calls)
     v_xc         :      0.00s CPU      0.01s WALL (       1 calls)

     Called by c_bands:
     init_us_2    :      0.01s CPU      0.01s WALL (      32 calls)
     cegterg      :      3.81s CPU      3.86s WALL (      54 calls)

     Called by sum_band:

     Called by *egterg:
     cdiaghg      :      0.14s CPU      0.14s WALL (     806 calls)
     cegterg:over :      0.08s CPU      0.08s WALL (     774 calls)
     cegterg:upda :      0.05s CPU      0.06s WALL (     774 calls)
     cegterg:last :      0.13s CPU      0.13s WALL (     568 calls)
     h_psi        :      3.54s CPU      3.58s WALL (     860 calls)
     g_psi        :      0.03s CPU      0.03s WALL (     774 calls)

     Called by h_psi:
     h_psi:calbec :      0.04s CPU      0.04s WALL (     860 calls)
     vloc_psi     :      3.46s CPU      3.49s WALL (     860 calls)
     add_vuspsi   :      0.04s CPU      0.04s WALL (     860 calls)

     General routines
     calbec       :      0.03s CPU      0.04s WALL (     860 calls)
     fft          :      0.00s CPU      0.01s WALL (       4 calls)
     fftw         :      3.09s CPU      3.13s WALL (   14162 calls)
     davcio       :      0.00s CPU      0.00s WALL (      64 calls)
 
     Parallel routines
 
     PWSCF        :      4.64s CPU      4.84s WALL

 
   This run was terminated on:  11:52: 4   2Nov2021            

=------------------------------------------------------------------------------=
   JOB DONE.
=------------------------------------------------------------------------------=
