
     Program PHONON v.6.7MaX starts on 17Jan2021 at 19:56: 5 

     This program is part of the open-source Quantum ESPRESSO suite
     for quantum simulation of materials; please cite
         "P. Giannozzi et al., J. Phys.:Condens. Matter 21 395502 (2009);
         "P. Giannozzi et al., J. Phys.:Condens. Matter 29 465901 (2017);
          URL http://www.quantum-espresso.org", 
     in publications or presentations arising from this work. More details at
     http://www.quantum-espresso.org/quote

     Parallel version (MPI), running on    40 processors

     MPI processes distributed on     2 nodes
     K-points division:     npool     =       8
     R & G space division:  proc/nbgrp/npool/nimage =       5
     Reading input from ph.in

     Reading xml data from directory:

     ./temp/bn.save/
     Message from routine read_pp_mesh:
     mesh size missing, using the one in header
     Message from routine read_pp_mesh:
     mesh size missing, using the one in header

     IMPORTANT: XC functional enforced from input :
     Exchange-correlation= PW
                           (   1   4   0   0   0   0   0)
     Any further DFT definition will be discarded
     Please, verify this is what you really want

 
     Parallelization info
     --------------------
     sticks:   dense  smooth     PW     G-vecs:    dense   smooth      PW
     Min          87      87     30                 1245     1245     248
     Max          88      88     31                 1247     1247     251
     Sum         439     439    151                 6231     6231    1243
 
     Reading collected, re-writing distributed wavefunctions


     Dynamical matrices for ( 2, 2, 2)  uniform grid of q-points
     (   3 q-points):
       N         xq(1)         xq(2)         xq(3) 
       1   0.000000000   0.000000000   0.000000000
       2   0.500000000  -0.500000000   0.500000000
       3   0.000000000  -1.000000000   0.000000000

     Saving dvscf to file. Distribute only q points, not irreducible represetations.

     Calculation of q =    0.0000000   0.0000000   0.0000000

     --                                                                         

     bravais-lattice index     =            2
     lattice parameter (alat)  =       6.8300  a.u.
     unit-cell volume          =      79.6530 (a.u.)^3
     number of atoms/cell      =            2
     number of atomic types    =            2
     kinetic-energy cut-off    =      70.0000  Ry
     charge density cut-off    =     280.0000  Ry
     convergence threshold     =      1.0E-25
     beta                      =       0.7000
     number of iterations used =            4
     Exchange-correlation= PW
                           (   1   4   0   0   0   0   0)


     celldm(1)=    6.83000  celldm(2)=    0.00000  celldm(3)=    0.00000
     celldm(4)=    0.00000  celldm(5)=    0.00000  celldm(6)=    0.00000

     crystal axes: (cart. coord. in units of alat)
               a(1) = ( -0.5000  0.0000  0.5000 )  
               a(2) = (  0.0000  0.5000  0.5000 )  
               a(3) = ( -0.5000  0.5000  0.0000 )  

     reciprocal axes: (cart. coord. in units 2 pi/alat)
               b(1) = ( -1.0000 -1.0000  1.0000 )  
               b(2) = (  1.0000  1.0000  1.0000 )  
               b(3) = ( -1.0000  1.0000 -1.0000 )  


     Atoms inside the unit cell: 

     Cartesian axes

     site n.  atom      mass           positions (alat units)
        1     B   10.8110   tau(    1) = (   -0.12500    0.12500    0.12500  )
        2     N   14.0067   tau(    2) = (    0.12500   -0.12500   -0.12500  )

     Computing dynamical matrix for 
                    q = (   0.0000000   0.0000000   0.0000000 )
 
     25 Sym.Ops. (with q -> -q+G )


     G cutoff =  330.8565  (   1245 G-vectors)     FFT grid: ( 30, 30, 30)
     number of k points=    72

     PseudoPot. # 1 for B  read from file:
     ./B.dojo.sr.ONCVv0.4.lda.standard.upf
     MD5 check sum: 69d4ef3dbc0509a37f66397c3ecc5321
     Pseudo is Norm-conserving + core correction, Zval =  3.0
     Generated using ONCVPSP code by D. R. Hamann
     Using radial grid of 1498 points,  4 beta functions with: 
                l(1) =   0
                l(2) =   0
                l(3) =   1
                l(4) =   1

     PseudoPot. # 2 for N  read from file:
     ./N.dojo.sr.ONCVv0.4.lda.standard.upf
     MD5 check sum: f7cfb052850314c53fa2901765c0b356
     Pseudo is Norm-conserving + core correction, Zval =  5.0
     Generated using ONCVPSP code by D. R. Hamann
     Using radial grid of 1058 points,  4 beta functions with: 
                l(1) =   0
                l(2) =   0
                l(3) =   1
                l(4) =   1

     Mode symmetry, T_d (-43m)  point group:


     Electric field:
     Dielectric constant
     Born effective charges in two ways 


     Atomic displacements:
     There are    2 irreducible representations

     Representation     1      3 modes -  To be done

     Representation     2      3 modes -  To be done



     Alpha used in Ewald sum =   2.8000
     PHONON       :      2.16s CPU      2.26s WALL


     Electric Fields Calculation

      iter #   1 total cpu time :     3.1 secs   av.it.:   6.3
      thresh= 1.000E-02 alpha_mix =  0.700 |ddv_scf|^2 =  1.846E-08

      iter #   2 total cpu time :     3.9 secs   av.it.:  11.2
      thresh= 1.359E-05 alpha_mix =  0.700 |ddv_scf|^2 =  1.885E-10

      iter #   3 total cpu time :     4.3 secs   av.it.:  11.4
      thresh= 1.373E-06 alpha_mix =  0.700 |ddv_scf|^2 =  9.955E-12

      iter #   4 total cpu time :     4.7 secs   av.it.:  11.6
      thresh= 3.155E-07 alpha_mix =  0.700 |ddv_scf|^2 =  3.666E-14

      iter #   5 total cpu time :     5.0 secs   av.it.:  11.0
      thresh= 1.915E-08 alpha_mix =  0.700 |ddv_scf|^2 =  9.705E-17

      iter #   6 total cpu time :     5.4 secs   av.it.:  11.4
      thresh= 9.852E-10 alpha_mix =  0.700 |ddv_scf|^2 =  6.519E-19

      iter #   7 total cpu time :     5.8 secs   av.it.:  11.5
      thresh= 8.074E-11 alpha_mix =  0.700 |ddv_scf|^2 =  6.623E-21

      iter #   8 total cpu time :     6.2 secs   av.it.:  11.6
      thresh= 8.138E-12 alpha_mix =  0.700 |ddv_scf|^2 =  9.833E-23

      iter #   9 total cpu time :     6.6 secs   av.it.:  11.1
      thresh= 9.916E-13 alpha_mix =  0.700 |ddv_scf|^2 =  4.175E-24

      iter #  10 total cpu time :     7.0 secs   av.it.:  11.6
      thresh= 2.043E-13 alpha_mix =  0.700 |ddv_scf|^2 =  7.972E-27

     End of electric fields calculation

          Dielectric constant in cartesian axis 

          (       4.533036089       0.000000000       0.000000000 )
          (       0.000000000       4.533036089      -0.000000000 )
          (       0.000000000      -0.000000000       4.533036089 )

          Effective charges (d Force / dE) in cartesian axis

           atom      1   B  
      Ex  (        1.89101        0.00000       -0.00000 )
      Ey  (       -0.00000        1.89101       -0.00000 )
      Ez  (        0.00000        0.00000        1.89101 )
           atom      2   N  
      Ex  (       -1.89072        0.00000       -0.00000 )
      Ey  (        0.00000       -1.89072       -0.00000 )
      Ez  (        0.00000       -0.00000       -1.89072 )


     Representation #   1 modes #   1   2   3

     Self-consistent Calculation

      iter #   1 total cpu time :     7.5 secs   av.it.:   7.8
      thresh= 1.000E-02 alpha_mix =  0.700 |ddv_scf|^2 =  8.551E-07

      iter #   2 total cpu time :     7.9 secs   av.it.:  11.4
      thresh= 9.247E-05 alpha_mix =  0.700 |ddv_scf|^2 =  2.624E-09

      iter #   3 total cpu time :     8.4 secs   av.it.:  11.5
      thresh= 5.122E-06 alpha_mix =  0.700 |ddv_scf|^2 =  1.805E-10

      iter #   4 total cpu time :     8.8 secs   av.it.:  11.5
      thresh= 1.343E-06 alpha_mix =  0.700 |ddv_scf|^2 =  1.002E-12

      iter #   5 total cpu time :     9.2 secs   av.it.:  11.2
      thresh= 1.001E-07 alpha_mix =  0.700 |ddv_scf|^2 =  1.102E-14

      iter #   6 total cpu time :     9.7 secs   av.it.:  11.3
      thresh= 1.050E-08 alpha_mix =  0.700 |ddv_scf|^2 =  1.804E-17

      iter #   7 total cpu time :    10.1 secs   av.it.:  11.0
      thresh= 4.247E-10 alpha_mix =  0.700 |ddv_scf|^2 =  9.883E-19

      iter #   8 total cpu time :    10.5 secs   av.it.:  11.2
      thresh= 9.941E-11 alpha_mix =  0.700 |ddv_scf|^2 =  1.820E-21

      iter #   9 total cpu time :    10.9 secs   av.it.:  11.2
      thresh= 4.266E-12 alpha_mix =  0.700 |ddv_scf|^2 =  2.201E-23

      iter #  10 total cpu time :    11.4 secs   av.it.:  11.1
      thresh= 4.691E-13 alpha_mix =  0.700 |ddv_scf|^2 =  2.285E-25

      iter #  11 total cpu time :    11.8 secs   av.it.:  11.4
      thresh= 4.780E-14 alpha_mix =  0.700 |ddv_scf|^2 =  6.967E-27

     End of self-consistent calculation

     Convergence has been achieved 


     Representation #   2 modes #   4   5   6

     Self-consistent Calculation

      iter #   1 total cpu time :    12.2 secs   av.it.:   6.4
      thresh= 1.000E-02 alpha_mix =  0.700 |ddv_scf|^2 =  2.581E-08

      iter #   2 total cpu time :    12.7 secs   av.it.:  11.0
      thresh= 1.607E-05 alpha_mix =  0.700 |ddv_scf|^2 =  5.789E-10

      iter #   3 total cpu time :    13.1 secs   av.it.:  10.9
      thresh= 2.406E-06 alpha_mix =  0.700 |ddv_scf|^2 =  1.123E-11

      iter #   4 total cpu time :    13.5 secs   av.it.:  10.9
      thresh= 3.351E-07 alpha_mix =  0.700 |ddv_scf|^2 =  2.383E-13

      iter #   5 total cpu time :    13.9 secs   av.it.:  10.9
      thresh= 4.881E-08 alpha_mix =  0.700 |ddv_scf|^2 =  6.376E-16

      iter #   6 total cpu time :    14.4 secs   av.it.:  11.6
      thresh= 2.525E-09 alpha_mix =  0.700 |ddv_scf|^2 =  1.186E-18

      iter #   7 total cpu time :    14.8 secs   av.it.:  10.5
      thresh= 1.089E-10 alpha_mix =  0.700 |ddv_scf|^2 =  8.837E-20

      iter #   8 total cpu time :    15.2 secs   av.it.:  11.0
      thresh= 2.973E-11 alpha_mix =  0.700 |ddv_scf|^2 =  1.482E-22

      iter #   9 total cpu time :    15.6 secs   av.it.:  11.4
      thresh= 1.217E-12 alpha_mix =  0.700 |ddv_scf|^2 =  6.256E-24

      iter #  10 total cpu time :    16.1 secs   av.it.:  11.5
      thresh= 2.501E-13 alpha_mix =  0.700 |ddv_scf|^2 =  4.293E-26

     End of self-consistent calculation

     Convergence has been achieved 
 
     Number of q in the star =    1
     List of q in the star:
          1   0.000000000   0.000000000   0.000000000

          Dielectric constant in cartesian axis 

          (       4.533036089       0.000000000       0.000000000 )
          (       0.000000000       4.533036089      -0.000000000 )
          (       0.000000000      -0.000000000       4.533036089 )

          Effective charges (d Force / dE) in cartesian axis

           atom      1   B  
      Ex  (        1.89101        0.00000       -0.00000 )
      Ey  (       -0.00000        1.89101       -0.00000 )
      Ez  (        0.00000        0.00000        1.89101 )
           atom      2   N  
      Ex  (       -1.89072        0.00000       -0.00000 )
      Ey  (        0.00000       -1.89072       -0.00000 )
      Ez  (        0.00000       -0.00000       -1.89072 )

          Effective charges (d P / du) in cartesian axis 

           atom      1   B  
      Px  (        1.89101       -0.00000       -0.00000 )
      Py  (       -0.00000        1.89101        0.00000 )
      Pz  (        0.00000        0.00000        1.89101 )
           atom      2   N  
      Px  (       -1.89072       -0.00000        0.00000 )
      Py  (       -0.00000       -1.89072        0.00000 )
      Pz  (        0.00000       -0.00000       -1.89072 )

     Diagonalizing the dynamical matrix

     q = (    0.000000000   0.000000000   0.000000000 ) 

 **************************************************************************
     freq (    1) =      -0.009703 [THz] =      -0.323669 [cm-1]
     freq (    2) =      -0.009703 [THz] =      -0.323669 [cm-1]
     freq (    3) =      -0.009703 [THz] =      -0.323669 [cm-1]
     freq (    4) =      30.985868 [THz] =    1033.577291 [cm-1]
     freq (    5) =      30.985868 [THz] =    1033.577291 [cm-1]
     freq (    6) =      30.985868 [THz] =    1033.577291 [cm-1]
 **************************************************************************

     Mode symmetry, T_d (-43m)  point group:

     freq (   1-   3) =         -0.3  [cm-1]   --> T_2  G_15 P_4   I+R
     freq (   4-   6) =       1033.6  [cm-1]   --> T_2  G_15 P_4   I+R

     Calculation of q =    0.5000000  -0.5000000   0.5000000

     Subspace diagonalization in iterative solution of the eigenvalue problem:
     a serial algorithm will be used

 
     Parallelization info
     --------------------
     sticks:   dense  smooth     PW     G-vecs:    dense   smooth      PW
     Min          87      87     32                 1245     1245     290
     Max          88      88     33                 1247     1247     293
     Sum         439     439    163                 6231     6231    1459
 

     Title: 
     --                                                                         


     bravais-lattice index     =            2
     lattice parameter (alat)  =       6.8300  a.u.
     unit-cell volume          =      79.6530 (a.u.)^3
     number of atoms/cell      =            2
     number of atomic types    =            2
     number of electrons       =         8.00
     number of Kohn-Sham states=            4
     kinetic-energy cutoff     =      70.0000  Ry
     charge density cutoff     =     280.0000  Ry
     Exchange-correlation= PW
                           (   1   4   0   0   0   0   0)

     celldm(1)=   6.830000  celldm(2)=   0.000000  celldm(3)=   0.000000
     celldm(4)=   0.000000  celldm(5)=   0.000000  celldm(6)=   0.000000

     crystal axes: (cart. coord. in units of alat)
               a(1) = (  -0.500000   0.000000   0.500000 )  
               a(2) = (   0.000000   0.500000   0.500000 )  
               a(3) = (  -0.500000   0.500000   0.000000 )  

     reciprocal axes: (cart. coord. in units 2 pi/alat)
               b(1) = ( -1.000000 -1.000000  1.000000 )  
               b(2) = (  1.000000  1.000000  1.000000 )  
               b(3) = ( -1.000000  1.000000 -1.000000 )  


     PseudoPot. # 1 for B  read from file:
     ./B.dojo.sr.ONCVv0.4.lda.standard.upf
     MD5 check sum: 69d4ef3dbc0509a37f66397c3ecc5321
     Pseudo is Norm-conserving + core correction, Zval =  3.0
     Generated using ONCVPSP code by D. R. Hamann
     Using radial grid of 1498 points,  4 beta functions with: 
                l(1) =   0
                l(2) =   0
                l(3) =   1
                l(4) =   1

     PseudoPot. # 2 for N  read from file:
     ./N.dojo.sr.ONCVv0.4.lda.standard.upf
     MD5 check sum: f7cfb052850314c53fa2901765c0b356
     Pseudo is Norm-conserving + core correction, Zval =  5.0
     Generated using ONCVPSP code by D. R. Hamann
     Using radial grid of 1058 points,  4 beta functions with: 
                l(1) =   0
                l(2) =   0
                l(3) =   1
                l(4) =   1

     atomic species   valence    mass     pseudopotential
        B              3.00    10.81100     B ( 1.00)
        N              5.00    14.00670     N ( 1.00)

     24 Sym. Ops. (no inversion) found



   Cartesian axes

     site n.     atom                  positions (alat units)
         1           B   tau(   1) = (  -0.1250000   0.1250000   0.1250000  )
         2           N   tau(   2) = (   0.1250000  -0.1250000  -0.1250000  )

     number of k points=   378

     Number of k-points >= 100: set verbosity='high' to print them.

     Dense  grid:     6231 G-vectors     FFT dimensions: (  30,  30,  30)

     Estimated max dynamical RAM per process >       1.51 MB

     Estimated total dynamical RAM >      60.20 MB

     The potential is recalculated from file :
     ./temp/_ph0/bn.q_2/bn.save/charge-density

     Starting wfcs are    8 atomic wfcs

     Band Structure Calculation
     Davidson diagonalization with overlap

     ethr =  1.25E-10,  avg # of iterations = 10.6

     total cpu time spent up to now is        0.9 secs

     End of band structure calculation

     Number of k-points >= 100: set verbosity='high' to print the bands.

     highest occupied level (ev):    10.9216

     --                                                                         

     bravais-lattice index     =            2
     lattice parameter (alat)  =       6.8300  a.u.
     unit-cell volume          =      79.6530 (a.u.)^3
     number of atoms/cell      =            2
     number of atomic types    =            2
     kinetic-energy cut-off    =      70.0000  Ry
     charge density cut-off    =     280.0000  Ry
     convergence threshold     =      1.0E-25
     beta                      =       0.7000
     number of iterations used =            4
     Exchange-correlation= PW
                           (   1   4   0   0   0   0   0)


     celldm(1)=    6.83000  celldm(2)=    0.00000  celldm(3)=    0.00000
     celldm(4)=    0.00000  celldm(5)=    0.00000  celldm(6)=    0.00000

     crystal axes: (cart. coord. in units of alat)
               a(1) = ( -0.5000  0.0000  0.5000 )  
               a(2) = (  0.0000  0.5000  0.5000 )  
               a(3) = ( -0.5000  0.5000  0.0000 )  

     reciprocal axes: (cart. coord. in units 2 pi/alat)
               b(1) = ( -1.0000 -1.0000  1.0000 )  
               b(2) = (  1.0000  1.0000  1.0000 )  
               b(3) = ( -1.0000  1.0000 -1.0000 )  


     Atoms inside the unit cell: 

     Cartesian axes

     site n.  atom      mass           positions (alat units)
        1     B   10.8110   tau(    1) = (   -0.12500    0.12500    0.12500  )
        2     N   14.0067   tau(    2) = (    0.12500   -0.12500   -0.12500  )

     Computing dynamical matrix for 
                    q = (   0.5000000  -0.5000000   0.5000000 )
 
      7 Sym.Ops. (with q -> -q+G )


     G cutoff =  330.8565  (   1245 G-vectors)     FFT grid: ( 30, 30, 30)
     number of k points=   378

     PseudoPot. # 1 for B  read from file:
     ./B.dojo.sr.ONCVv0.4.lda.standard.upf
     MD5 check sum: 69d4ef3dbc0509a37f66397c3ecc5321
     Pseudo is Norm-conserving + core correction, Zval =  3.0
     Generated using ONCVPSP code by D. R. Hamann
     Using radial grid of 1498 points,  4 beta functions with: 
                l(1) =   0
                l(2) =   0
                l(3) =   1
                l(4) =   1

     PseudoPot. # 2 for N  read from file:
     ./N.dojo.sr.ONCVv0.4.lda.standard.upf
     MD5 check sum: f7cfb052850314c53fa2901765c0b356
     Pseudo is Norm-conserving + core correction, Zval =  5.0
     Generated using ONCVPSP code by D. R. Hamann
     Using radial grid of 1058 points,  4 beta functions with: 
                l(1) =   0
                l(2) =   0
                l(3) =   1
                l(4) =   1

     Mode symmetry, C_3v (3m)   point group:


     Atomic displacements:
     There are    4 irreducible representations

     Representation     1      1 modes -  To be done

     Representation     2      1 modes -  To be done

     Representation     3      2 modes -  To be done

     Representation     4      2 modes -  To be done



     Alpha used in Ewald sum =   2.8000
     PHONON       :     17.12s CPU     18.45s WALL



     Representation #   1 mode #   1

     Self-consistent Calculation

      iter #   1 total cpu time :    18.7 secs   av.it.:   7.0
      thresh= 1.000E-02 alpha_mix =  0.700 |ddv_scf|^2 =  4.324E-05

      iter #   2 total cpu time :    19.4 secs   av.it.:   9.9
      thresh= 6.576E-04 alpha_mix =  0.700 |ddv_scf|^2 =  3.360E-05

      iter #   3 total cpu time :    19.7 secs   av.it.:   9.5
      thresh= 5.796E-04 alpha_mix =  0.700 |ddv_scf|^2 =  2.121E-07

      iter #   4 total cpu time :    20.0 secs   av.it.:   9.5
      thresh= 4.606E-05 alpha_mix =  0.700 |ddv_scf|^2 =  1.291E-08

      iter #   5 total cpu time :    20.3 secs   av.it.:   9.5
      thresh= 1.136E-05 alpha_mix =  0.700 |ddv_scf|^2 =  1.266E-10

      iter #   6 total cpu time :    20.6 secs   av.it.:   9.7
      thresh= 1.125E-06 alpha_mix =  0.700 |ddv_scf|^2 =  1.491E-12

      iter #   7 total cpu time :    20.9 secs   av.it.:   9.3
      thresh= 1.221E-07 alpha_mix =  0.700 |ddv_scf|^2 =  1.174E-13

      iter #   8 total cpu time :    21.2 secs   av.it.:   9.4
      thresh= 3.427E-08 alpha_mix =  0.700 |ddv_scf|^2 =  2.396E-16

      iter #   9 total cpu time :    21.6 secs   av.it.:   9.7
      thresh= 1.548E-09 alpha_mix =  0.700 |ddv_scf|^2 =  2.359E-17

      iter #  10 total cpu time :    21.9 secs   av.it.:   9.9
      thresh= 4.857E-10 alpha_mix =  0.700 |ddv_scf|^2 =  4.787E-19

      iter #  11 total cpu time :    22.2 secs   av.it.:   9.6
      thresh= 6.919E-11 alpha_mix =  0.700 |ddv_scf|^2 =  6.066E-20

      iter #  12 total cpu time :    22.5 secs   av.it.:   9.6
      thresh= 2.463E-11 alpha_mix =  0.700 |ddv_scf|^2 =  5.831E-22

      iter #  13 total cpu time :    22.8 secs   av.it.:   9.9
      thresh= 2.415E-12 alpha_mix =  0.700 |ddv_scf|^2 =  2.949E-23

      iter #  14 total cpu time :    23.2 secs   av.it.:   9.9
      thresh= 5.430E-13 alpha_mix =  0.700 |ddv_scf|^2 =  1.716E-24

      iter #  15 total cpu time :    23.5 secs   av.it.:   9.6
      thresh= 1.310E-13 alpha_mix =  0.700 |ddv_scf|^2 =  2.685E-26

     End of self-consistent calculation

     Convergence has been achieved 


     Representation #   2 mode #   2

     Self-consistent Calculation

      iter #   1 total cpu time :    23.8 secs   av.it.:   8.0
      thresh= 1.000E-02 alpha_mix =  0.700 |ddv_scf|^2 =  3.067E-04

      iter #   2 total cpu time :    24.1 secs   av.it.:   9.8
      thresh= 1.751E-03 alpha_mix =  0.700 |ddv_scf|^2 =  2.254E-04

      iter #   3 total cpu time :    24.5 secs   av.it.:   9.2
      thresh= 1.501E-03 alpha_mix =  0.700 |ddv_scf|^2 =  6.656E-07

      iter #   4 total cpu time :    24.8 secs   av.it.:   9.5
      thresh= 8.159E-05 alpha_mix =  0.700 |ddv_scf|^2 =  1.303E-08

      iter #   5 total cpu time :    25.1 secs   av.it.:   9.4
      thresh= 1.142E-05 alpha_mix =  0.700 |ddv_scf|^2 =  1.689E-09

      iter #   6 total cpu time :    25.4 secs   av.it.:   9.8
      thresh= 4.109E-06 alpha_mix =  0.700 |ddv_scf|^2 =  9.332E-12

      iter #   7 total cpu time :    25.7 secs   av.it.:   9.7
      thresh= 3.055E-07 alpha_mix =  0.700 |ddv_scf|^2 =  9.807E-14

      iter #   8 total cpu time :    26.0 secs   av.it.:   9.7
      thresh= 3.132E-08 alpha_mix =  0.700 |ddv_scf|^2 =  8.782E-16

      iter #   9 total cpu time :    26.3 secs   av.it.:  10.5
      thresh= 2.963E-09 alpha_mix =  0.700 |ddv_scf|^2 =  2.263E-16

      iter #  10 total cpu time :    26.6 secs   av.it.:   9.7
      thresh= 1.504E-09 alpha_mix =  0.700 |ddv_scf|^2 =  1.216E-17

      iter #  11 total cpu time :    27.0 secs   av.it.:   9.8
      thresh= 3.488E-10 alpha_mix =  0.700 |ddv_scf|^2 =  5.918E-19

      iter #  12 total cpu time :    27.3 secs   av.it.:   9.8
      thresh= 7.693E-11 alpha_mix =  0.700 |ddv_scf|^2 =  2.409E-20

      iter #  13 total cpu time :    27.6 secs   av.it.:   9.8
      thresh= 1.552E-11 alpha_mix =  0.700 |ddv_scf|^2 =  3.457E-23

      iter #  14 total cpu time :    27.9 secs   av.it.:   9.4
      thresh= 5.880E-13 alpha_mix =  0.700 |ddv_scf|^2 =  2.987E-24

      iter #  15 total cpu time :    28.2 secs   av.it.:  10.0
      thresh= 1.728E-13 alpha_mix =  0.700 |ddv_scf|^2 =  1.427E-25

      iter #  16 total cpu time :    28.5 secs   av.it.:  10.0
      thresh= 3.777E-14 alpha_mix =  0.700 |ddv_scf|^2 =  1.477E-26

     End of self-consistent calculation

     Convergence has been achieved 


     Representation #   3 modes #   3   4

     Self-consistent Calculation

      iter #   1 total cpu time :    29.1 secs   av.it.:   7.8
      thresh= 1.000E-02 alpha_mix =  0.700 |ddv_scf|^2 =  2.494E-06

      iter #   2 total cpu time :    29.7 secs   av.it.:  11.0
      thresh= 1.579E-04 alpha_mix =  0.700 |ddv_scf|^2 =  9.996E-09

      iter #   3 total cpu time :    30.4 secs   av.it.:  11.1
      thresh= 9.998E-06 alpha_mix =  0.700 |ddv_scf|^2 =  4.350E-10

      iter #   4 total cpu time :    31.0 secs   av.it.:  11.1
      thresh= 2.086E-06 alpha_mix =  0.700 |ddv_scf|^2 =  1.455E-12

      iter #   5 total cpu time :    31.5 secs   av.it.:  11.0
      thresh= 1.206E-07 alpha_mix =  0.700 |ddv_scf|^2 =  1.218E-14

      iter #   6 total cpu time :    32.1 secs   av.it.:  10.8
      thresh= 1.104E-08 alpha_mix =  0.700 |ddv_scf|^2 =  8.916E-17

      iter #   7 total cpu time :    32.7 secs   av.it.:  10.9
      thresh= 9.442E-10 alpha_mix =  0.700 |ddv_scf|^2 =  1.951E-18

      iter #   8 total cpu time :    33.3 secs   av.it.:  10.7
      thresh= 1.397E-10 alpha_mix =  0.700 |ddv_scf|^2 =  1.096E-20

      iter #   9 total cpu time :    33.9 secs   av.it.:  10.8
      thresh= 1.047E-11 alpha_mix =  0.700 |ddv_scf|^2 =  2.905E-22

      iter #  10 total cpu time :    34.5 secs   av.it.:  10.9
      thresh= 1.704E-12 alpha_mix =  0.700 |ddv_scf|^2 =  6.151E-24

      iter #  11 total cpu time :    35.1 secs   av.it.:  11.0
      thresh= 2.480E-13 alpha_mix =  0.700 |ddv_scf|^2 =  1.058E-25

      iter #  12 total cpu time :    35.7 secs   av.it.:  11.2
      thresh= 3.252E-14 alpha_mix =  0.700 |ddv_scf|^2 =  8.762E-28

     End of self-consistent calculation

     Convergence has been achieved 


     Representation #   4 modes #   5   6

     Self-consistent Calculation

      iter #   1 total cpu time :    36.3 secs   av.it.:   6.5
      thresh= 1.000E-02 alpha_mix =  0.700 |ddv_scf|^2 =  1.111E-07

      iter #   2 total cpu time :    36.8 secs   av.it.:  10.9
      thresh= 3.333E-05 alpha_mix =  0.700 |ddv_scf|^2 =  1.151E-09

      iter #   3 total cpu time :    37.4 secs   av.it.:  10.9
      thresh= 3.393E-06 alpha_mix =  0.700 |ddv_scf|^2 =  6.089E-11

      iter #   4 total cpu time :    38.0 secs   av.it.:  10.6
      thresh= 7.803E-07 alpha_mix =  0.700 |ddv_scf|^2 =  1.103E-12

      iter #   5 total cpu time :    38.6 secs   av.it.:  10.8
      thresh= 1.050E-07 alpha_mix =  0.700 |ddv_scf|^2 =  1.392E-15

      iter #   6 total cpu time :    39.2 secs   av.it.:  10.9
      thresh= 3.731E-09 alpha_mix =  0.700 |ddv_scf|^2 =  8.073E-18

      iter #   7 total cpu time :    39.8 secs   av.it.:  10.6
      thresh= 2.841E-10 alpha_mix =  0.700 |ddv_scf|^2 =  3.848E-19

      iter #   8 total cpu time :    40.4 secs   av.it.:  10.7
      thresh= 6.203E-11 alpha_mix =  0.700 |ddv_scf|^2 =  1.411E-21

      iter #   9 total cpu time :    40.9 secs   av.it.:  10.6
      thresh= 3.756E-12 alpha_mix =  0.700 |ddv_scf|^2 =  6.517E-23

      iter #  10 total cpu time :    41.5 secs   av.it.:  11.0
      thresh= 8.073E-13 alpha_mix =  0.700 |ddv_scf|^2 =  6.048E-26

     End of self-consistent calculation

     Convergence has been achieved 
 
     Number of q in the star =    4
     List of q in the star:
          1   0.500000000  -0.500000000   0.500000000
          2  -0.500000000   0.500000000   0.500000000
          3   0.500000000   0.500000000  -0.500000000
          4  -0.500000000  -0.500000000  -0.500000000

     Diagonalizing the dynamical matrix

     q = (    0.500000000  -0.500000000   0.500000000 ) 

 **************************************************************************
     freq (    1) =      14.569297 [THz] =     485.979441 [cm-1]
     freq (    2) =      14.569297 [THz] =     485.979441 [cm-1]
     freq (    3) =      28.579849 [THz] =     953.321162 [cm-1]
     freq (    4) =      29.172248 [THz] =     973.081463 [cm-1]
     freq (    5) =      29.172248 [THz] =     973.081463 [cm-1]
     freq (    6) =      33.882524 [THz] =    1130.199360 [cm-1]
 **************************************************************************

     Mode symmetry, C_3v (3m)   point group:

     freq (   1-   2) =        486.0  [cm-1]   --> E    L_3           
     freq (   3-   3) =        953.3  [cm-1]   --> A_1  L_1           
     freq (   4-   5) =        973.1  [cm-1]   --> E    L_3           
     freq (   6-   6) =       1130.2  [cm-1]   --> A_1  L_1           

     Calculation of q =    0.0000000  -1.0000000   0.0000000
 
     Parallelization info
     --------------------
     sticks:   dense  smooth     PW     G-vecs:    dense   smooth      PW
     Min          87      87     32                 1245     1245     290
     Max          88      88     33                 1247     1247     293
     Sum         439     439    163                 6231     6231    1459
 

     Title: 
     --                                                                         


     bravais-lattice index     =            2
     lattice parameter (alat)  =       6.8300  a.u.
     unit-cell volume          =      79.6530 (a.u.)^3
     number of atoms/cell      =            2
     number of atomic types    =            2
     number of electrons       =         8.00
     number of Kohn-Sham states=            4
     kinetic-energy cutoff     =      70.0000  Ry
     charge density cutoff     =     280.0000  Ry
     Exchange-correlation= PW
                           (   1   4   0   0   0   0   0)

     celldm(1)=   6.830000  celldm(2)=   0.000000  celldm(3)=   0.000000
     celldm(4)=   0.000000  celldm(5)=   0.000000  celldm(6)=   0.000000

     crystal axes: (cart. coord. in units of alat)
               a(1) = (  -0.500000   0.000000   0.500000 )  
               a(2) = (   0.000000   0.500000   0.500000 )  
               a(3) = (  -0.500000   0.500000   0.000000 )  

     reciprocal axes: (cart. coord. in units 2 pi/alat)
               b(1) = ( -1.000000 -1.000000  1.000000 )  
               b(2) = (  1.000000  1.000000  1.000000 )  
               b(3) = ( -1.000000  1.000000 -1.000000 )  


     PseudoPot. # 1 for B  read from file:
     ./B.dojo.sr.ONCVv0.4.lda.standard.upf
     MD5 check sum: 69d4ef3dbc0509a37f66397c3ecc5321
     Pseudo is Norm-conserving + core correction, Zval =  3.0
     Generated using ONCVPSP code by D. R. Hamann
     Using radial grid of 1498 points,  4 beta functions with: 
                l(1) =   0
                l(2) =   0
                l(3) =   1
                l(4) =   1

     PseudoPot. # 2 for N  read from file:
     ./N.dojo.sr.ONCVv0.4.lda.standard.upf
     MD5 check sum: f7cfb052850314c53fa2901765c0b356
     Pseudo is Norm-conserving + core correction, Zval =  5.0
     Generated using ONCVPSP code by D. R. Hamann
     Using radial grid of 1058 points,  4 beta functions with: 
                l(1) =   0
                l(2) =   0
                l(3) =   1
                l(4) =   1

     atomic species   valence    mass     pseudopotential
        B              3.00    10.81100     B ( 1.00)
        N              5.00    14.00670     N ( 1.00)

     24 Sym. Ops. (no inversion) found



   Cartesian axes

     site n.     atom                  positions (alat units)
         1           B   tau(   1) = (  -0.1250000   0.1250000   0.1250000  )
         2           N   tau(   2) = (   0.1250000  -0.1250000  -0.1250000  )

     number of k points=   326

     Number of k-points >= 100: set verbosity='high' to print them.

     Dense  grid:     6231 G-vectors     FFT dimensions: (  30,  30,  30)

     Estimated max dynamical RAM per process >       1.51 MB

     Estimated total dynamical RAM >      60.44 MB

     The potential is recalculated from file :
     ./temp/_ph0/bn.q_3/bn.save/charge-density

     Starting wfcs are    8 atomic wfcs

     Band Structure Calculation
     Davidson diagonalization with overlap

     ethr =  1.25E-10,  avg # of iterations = 10.6

     total cpu time spent up to now is        2.1 secs

     End of band structure calculation

     Number of k-points >= 100: set verbosity='high' to print the bands.

     highest occupied level (ev):    10.9216

     --                                                                         

     bravais-lattice index     =            2
     lattice parameter (alat)  =       6.8300  a.u.
     unit-cell volume          =      79.6530 (a.u.)^3
     number of atoms/cell      =            2
     number of atomic types    =            2
     kinetic-energy cut-off    =      70.0000  Ry
     charge density cut-off    =     280.0000  Ry
     convergence threshold     =      1.0E-25
     beta                      =       0.7000
     number of iterations used =            4
     Exchange-correlation= PW
                           (   1   4   0   0   0   0   0)


     celldm(1)=    6.83000  celldm(2)=    0.00000  celldm(3)=    0.00000
     celldm(4)=    0.00000  celldm(5)=    0.00000  celldm(6)=    0.00000

     crystal axes: (cart. coord. in units of alat)
               a(1) = ( -0.5000  0.0000  0.5000 )  
               a(2) = (  0.0000  0.5000  0.5000 )  
               a(3) = ( -0.5000  0.5000  0.0000 )  

     reciprocal axes: (cart. coord. in units 2 pi/alat)
               b(1) = ( -1.0000 -1.0000  1.0000 )  
               b(2) = (  1.0000  1.0000  1.0000 )  
               b(3) = ( -1.0000  1.0000 -1.0000 )  


     Atoms inside the unit cell: 

     Cartesian axes

     site n.  atom      mass           positions (alat units)
        1     B   10.8110   tau(    1) = (   -0.12500    0.12500    0.12500  )
        2     N   14.0067   tau(    2) = (    0.12500   -0.12500   -0.12500  )

     Computing dynamical matrix for 
                    q = (   0.0000000  -1.0000000   0.0000000 )
 
      9 Sym.Ops. (with q -> -q+G )


     G cutoff =  330.8565  (   1245 G-vectors)     FFT grid: ( 30, 30, 30)
     number of k points=   326

     PseudoPot. # 1 for B  read from file:
     ./B.dojo.sr.ONCVv0.4.lda.standard.upf
     MD5 check sum: 69d4ef3dbc0509a37f66397c3ecc5321
     Pseudo is Norm-conserving + core correction, Zval =  3.0
     Generated using ONCVPSP code by D. R. Hamann
     Using radial grid of 1498 points,  4 beta functions with: 
                l(1) =   0
                l(2) =   0
                l(3) =   1
                l(4) =   1

     PseudoPot. # 2 for N  read from file:
     ./N.dojo.sr.ONCVv0.4.lda.standard.upf
     MD5 check sum: f7cfb052850314c53fa2901765c0b356
     Pseudo is Norm-conserving + core correction, Zval =  5.0
     Generated using ONCVPSP code by D. R. Hamann
     Using radial grid of 1058 points,  4 beta functions with: 
                l(1) =   0
                l(2) =   0
                l(3) =   1
                l(4) =   1


     Atomic displacements:
     There are    4 irreducible representations

     Representation     1      1 modes -  To be done

     Representation     2      1 modes -  To be done

     Representation     3      2 modes -  To be done

     Representation     4      2 modes -  To be done



     Alpha used in Ewald sum =   2.8000
     PHONON       :     40.80s CPU     43.89s WALL



     Representation #   1 mode #   1

     Self-consistent Calculation

      iter #   1 total cpu time :    44.1 secs   av.it.:   7.8
      thresh= 1.000E-02 alpha_mix =  0.700 |ddv_scf|^2 =  1.511E-04

      iter #   2 total cpu time :    44.7 secs   av.it.:   9.7
      thresh= 1.229E-03 alpha_mix =  0.700 |ddv_scf|^2 =  6.355E-05

      iter #   3 total cpu time :    45.0 secs   av.it.:   9.2
      thresh= 7.972E-04 alpha_mix =  0.700 |ddv_scf|^2 =  1.893E-08

      iter #   4 total cpu time :    45.3 secs   av.it.:   9.6
      thresh= 1.376E-05 alpha_mix =  0.700 |ddv_scf|^2 =  5.143E-10

      iter #   5 total cpu time :    45.5 secs   av.it.:   9.8
      thresh= 2.268E-06 alpha_mix =  0.700 |ddv_scf|^2 =  1.905E-12

      iter #   6 total cpu time :    45.8 secs   av.it.:   9.6
      thresh= 1.380E-07 alpha_mix =  0.700 |ddv_scf|^2 =  4.899E-14

      iter #   7 total cpu time :    46.1 secs   av.it.:   9.6
      thresh= 2.213E-08 alpha_mix =  0.700 |ddv_scf|^2 =  1.309E-16

      iter #   8 total cpu time :    46.4 secs   av.it.:  10.0
      thresh= 1.144E-09 alpha_mix =  0.700 |ddv_scf|^2 =  7.330E-19

      iter #   9 total cpu time :    46.7 secs   av.it.:   9.7
      thresh= 8.561E-11 alpha_mix =  0.700 |ddv_scf|^2 =  7.411E-20

      iter #  10 total cpu time :    46.9 secs   av.it.:   9.8
      thresh= 2.722E-11 alpha_mix =  0.700 |ddv_scf|^2 =  2.961E-21

      iter #  11 total cpu time :    47.2 secs   av.it.:   9.5
      thresh= 5.441E-12 alpha_mix =  0.700 |ddv_scf|^2 =  9.244E-24

      iter #  12 total cpu time :    47.5 secs   av.it.:  10.0
      thresh= 3.040E-13 alpha_mix =  0.700 |ddv_scf|^2 =  5.787E-26

     End of self-consistent calculation

     Convergence has been achieved 


     Representation #   2 mode #   2

     Self-consistent Calculation

      iter #   1 total cpu time :    47.8 secs   av.it.:   6.9
      thresh= 1.000E-02 alpha_mix =  0.700 |ddv_scf|^2 =  1.847E-05

      iter #   2 total cpu time :    48.1 secs   av.it.:   9.7
      thresh= 4.297E-04 alpha_mix =  0.700 |ddv_scf|^2 =  1.384E-05

      iter #   3 total cpu time :    48.3 secs   av.it.:   9.4
      thresh= 3.720E-04 alpha_mix =  0.700 |ddv_scf|^2 =  2.035E-07

      iter #   4 total cpu time :    48.6 secs   av.it.:   9.3
      thresh= 4.511E-05 alpha_mix =  0.700 |ddv_scf|^2 =  2.664E-10

      iter #   5 total cpu time :    48.9 secs   av.it.:   9.7
      thresh= 1.632E-06 alpha_mix =  0.700 |ddv_scf|^2 =  1.636E-12

      iter #   6 total cpu time :    49.2 secs   av.it.:   9.3
      thresh= 1.279E-07 alpha_mix =  0.700 |ddv_scf|^2 =  8.506E-14

      iter #   7 total cpu time :    49.5 secs   av.it.:   9.5
      thresh= 2.917E-08 alpha_mix =  0.700 |ddv_scf|^2 =  1.159E-16

      iter #   8 total cpu time :    49.8 secs   av.it.:   9.8
      thresh= 1.076E-09 alpha_mix =  0.700 |ddv_scf|^2 =  3.320E-19

      iter #   9 total cpu time :    50.0 secs   av.it.:   9.7
      thresh= 5.762E-11 alpha_mix =  0.700 |ddv_scf|^2 =  2.331E-20

      iter #  10 total cpu time :    50.3 secs   av.it.:   9.9
      thresh= 1.527E-11 alpha_mix =  0.700 |ddv_scf|^2 =  2.036E-21

      iter #  11 total cpu time :    50.6 secs   av.it.:   9.6
      thresh= 4.512E-12 alpha_mix =  0.700 |ddv_scf|^2 =  9.946E-24

      iter #  12 total cpu time :    50.9 secs   av.it.:   9.7
      thresh= 3.154E-13 alpha_mix =  0.700 |ddv_scf|^2 =  1.278E-24

      iter #  13 total cpu time :    51.2 secs   av.it.:   9.7
      thresh= 1.131E-13 alpha_mix =  0.700 |ddv_scf|^2 =  1.418E-28

     End of self-consistent calculation

     Convergence has been achieved 


     Representation #   3 modes #   3   4

     Self-consistent Calculation

      iter #   1 total cpu time :    51.7 secs   av.it.:   7.9
      thresh= 1.000E-02 alpha_mix =  0.700 |ddv_scf|^2 =  4.716E-06

      iter #   2 total cpu time :    52.2 secs   av.it.:  10.8
      thresh= 2.172E-04 alpha_mix =  0.700 |ddv_scf|^2 =  8.438E-08

      iter #   3 total cpu time :    52.8 secs   av.it.:  10.7
      thresh= 2.905E-05 alpha_mix =  0.700 |ddv_scf|^2 =  5.382E-10

      iter #   4 total cpu time :    53.3 secs   av.it.:  10.8
      thresh= 2.320E-06 alpha_mix =  0.700 |ddv_scf|^2 =  7.575E-13

      iter #   5 total cpu time :    53.9 secs   av.it.:  10.8
      thresh= 8.704E-08 alpha_mix =  0.700 |ddv_scf|^2 =  1.290E-14

      iter #   6 total cpu time :    54.4 secs   av.it.:  10.5
      thresh= 1.136E-08 alpha_mix =  0.700 |ddv_scf|^2 =  8.323E-17

      iter #   7 total cpu time :    54.9 secs   av.it.:  10.9
      thresh= 9.123E-10 alpha_mix =  0.700 |ddv_scf|^2 =  4.718E-19

      iter #   8 total cpu time :    55.4 secs   av.it.:  10.5
      thresh= 6.869E-11 alpha_mix =  0.700 |ddv_scf|^2 =  5.724E-21

      iter #   9 total cpu time :    55.9 secs   av.it.:  10.9
      thresh= 7.566E-12 alpha_mix =  0.700 |ddv_scf|^2 =  1.217E-22

      iter #  10 total cpu time :    56.5 secs   av.it.:  10.4
      thresh= 1.103E-12 alpha_mix =  0.700 |ddv_scf|^2 =  2.124E-24

      iter #  11 total cpu time :    57.0 secs   av.it.:  10.7
      thresh= 1.457E-13 alpha_mix =  0.700 |ddv_scf|^2 =  5.390E-26

     End of self-consistent calculation

     Convergence has been achieved 


     Representation #   4 modes #   5   6

     Self-consistent Calculation

      iter #   1 total cpu time :    57.4 secs   av.it.:   6.7
      thresh= 1.000E-02 alpha_mix =  0.700 |ddv_scf|^2 =  3.701E-07

      iter #   2 total cpu time :    58.0 secs   av.it.:  10.8
      thresh= 6.084E-05 alpha_mix =  0.700 |ddv_scf|^2 =  5.431E-09

      iter #   3 total cpu time :    58.5 secs   av.it.:  10.8
      thresh= 7.369E-06 alpha_mix =  0.700 |ddv_scf|^2 =  1.045E-10

      iter #   4 total cpu time :    59.0 secs   av.it.:  10.7
      thresh= 1.022E-06 alpha_mix =  0.700 |ddv_scf|^2 =  3.900E-13

      iter #   5 total cpu time :    59.6 secs   av.it.:  10.9
      thresh= 6.245E-08 alpha_mix =  0.700 |ddv_scf|^2 =  1.620E-15

      iter #   6 total cpu time :    60.1 secs   av.it.:  10.8
      thresh= 4.025E-09 alpha_mix =  0.700 |ddv_scf|^2 =  2.994E-17

      iter #   7 total cpu time :    60.6 secs   av.it.:  10.7
      thresh= 5.471E-10 alpha_mix =  0.700 |ddv_scf|^2 =  3.358E-19

      iter #   8 total cpu time :    61.1 secs   av.it.:  10.7
      thresh= 5.795E-11 alpha_mix =  0.700 |ddv_scf|^2 =  7.277E-21

      iter #   9 total cpu time :    61.6 secs   av.it.:  10.9
      thresh= 8.530E-12 alpha_mix =  0.700 |ddv_scf|^2 =  9.229E-23

      iter #  10 total cpu time :    62.1 secs   av.it.:  10.5
      thresh= 9.607E-13 alpha_mix =  0.700 |ddv_scf|^2 =  2.103E-24

      iter #  11 total cpu time :    62.7 secs   av.it.:  10.6
      thresh= 1.450E-13 alpha_mix =  0.700 |ddv_scf|^2 =  5.830E-26

     End of self-consistent calculation

     Convergence has been achieved 
 
     Number of q in the star =    3
     List of q in the star:
          1   0.000000000  -1.000000000   0.000000000
          2   0.000000000   0.000000000  -1.000000000
          3  -1.000000000   0.000000000   0.000000000

     Diagonalizing the dynamical matrix

     q = (    0.000000000  -1.000000000   0.000000000 ) 

 **************************************************************************
     freq (    1) =      21.042711 [THz] =     701.909272 [cm-1]
     freq (    2) =      21.042711 [THz] =     701.909272 [cm-1]
     freq (    3) =      26.712772 [THz] =     891.042163 [cm-1]
     freq (    4) =      26.712772 [THz] =     891.042163 [cm-1]
     freq (    5) =      29.967467 [THz] =     999.607116 [cm-1]
     freq (    6) =      34.183447 [THz] =    1140.237056 [cm-1]
 **************************************************************************
 
     init_run     :      0.05s CPU      0.07s WALL (       2 calls)
     electrons    :      1.64s CPU      1.72s WALL (       2 calls)

     Called by init_run:
     wfcinit      :      0.00s CPU      0.00s WALL (       2 calls)
     potinit      :      0.01s CPU      0.02s WALL (       2 calls)
     hinit0       :      0.03s CPU      0.03s WALL (       2 calls)

     Called by electrons:
     c_bands      :      1.64s CPU      1.71s WALL (       2 calls)
     v_of_rho     :      0.00s CPU      0.00s WALL (       3 calls)

     Called by c_bands:
     init_us_2    :      0.13s CPU      0.14s WALL (    2961 calls)
     cegterg      :      0.81s CPU      0.86s WALL (      90 calls)

     Called by *egterg:
     cdiaghg      :      0.06s CPU      0.06s WALL (    1101 calls)
     h_psi        :     32.12s CPU     34.00s WALL (   50639 calls)
     g_psi        :      0.01s CPU      0.01s WALL (    1011 calls)

     Called by h_psi:
     h_psi:calbec :      1.49s CPU      1.58s WALL (   50639 calls)
     vloc_psi     :     29.90s CPU     31.65s WALL (   50639 calls)
     add_vuspsi   :      0.42s CPU      0.45s WALL (   50639 calls)

     General routines
     calbec       :      5.09s CPU      5.27s WALL (  101950 calls)
     fft          :      0.35s CPU      0.37s WALL (    1170 calls)
     ffts         :      0.05s CPU      0.06s WALL (     438 calls)
     fftw         :     33.14s CPU     35.14s WALL (  428360 calls)
     davcio       :      0.15s CPU      0.17s WALL (   17811 calls)
 
     Parallel routines
     fft_scatt_xy :      3.16s CPU      3.30s WALL (  429968 calls)
     fft_scatt_yz :     13.53s CPU     14.30s WALL (  429968 calls)
 
     PHONON       :     58.36s CPU   1m 2.81s WALL

     INITIALIZATION: 
     phq_setup    :      0.01s CPU      0.02s WALL (       3 calls)
     phq_init     :      3.28s CPU      3.29s WALL (       3 calls)
 
     phq_init     :      3.28s CPU      3.29s WALL (       3 calls)
     set_drhoc    :      0.13s CPU      0.13s WALL (       9 calls)
     init_vloc    :      0.00s CPU      0.00s WALL (       3 calls)
     init_us_1    :      0.01s CPU      0.01s WALL (       3 calls)
 
     DYNAMICAL MATRIX:
     dynmat0      :      0.53s CPU      0.54s WALL (       3 calls)
     phqscf       :     47.33s CPU     51.03s WALL (       3 calls)
     dynmatrix    :      0.11s CPU      0.12s WALL (       3 calls)
 
     phqscf       :     47.33s CPU     51.03s WALL (       3 calls)
     solve_linter :     47.24s CPU     50.70s WALL (      10 calls)
     drhodv       :      0.08s CPU      0.09s WALL (      10 calls)
 
     dynmat0      :      0.53s CPU      0.54s WALL (       3 calls)
     dynmat_us    :      0.42s CPU      0.42s WALL (       3 calls)
     d2ionq       :      0.00s CPU      0.00s WALL (       3 calls)
     dynmatcc     :      0.09s CPU      0.10s WALL (       3 calls)
 
     dynmat_us    :      0.42s CPU      0.42s WALL (       3 calls)
 
     phqscf       :     47.33s CPU     51.03s WALL (       3 calls)
     solve_linter :     47.24s CPU     50.70s WALL (      10 calls)
 
     solve_linter :     47.24s CPU     50.70s WALL (      10 calls)
     dvqpsi_us    :      0.35s CPU      0.37s WALL (     378 calls)
     ortho        :      0.13s CPU      0.14s WALL (    4113 calls)
     cgsolve      :     35.64s CPU     37.74s WALL (    4113 calls)
     incdrhoscf   :      2.95s CPU      3.14s WALL (    4086 calls)
     vpsifft      :      2.48s CPU      2.64s WALL (    3492 calls)
     dv_of_drho   :      0.11s CPU      0.11s WALL (     237 calls)
     mix_pot      :      0.06s CPU      0.06s WALL (     131 calls)
     psymdvscf    :      1.89s CPU      1.91s WALL (     121 calls)
 
     dvqpsi_us    :      0.35s CPU      0.37s WALL (     378 calls)
     dvqpsi_us_on :      0.01s CPU      0.01s WALL (     378 calls)
 
     cgsolve      :     35.64s CPU     37.74s WALL (    4113 calls)
     ch_psi       :     33.93s CPU     35.91s WALL (   49448 calls)
 
     ch_psi       :     33.93s CPU     35.91s WALL (   49448 calls)
     h_psi        :     32.12s CPU     34.00s WALL (   50639 calls)
     last         :      2.39s CPU      2.53s WALL (   49448 calls)
 
     h_psi        :     32.12s CPU     34.00s WALL (   50639 calls)
     add_vuspsi   :      0.42s CPU      0.45s WALL (   50639 calls)
 
     incdrhoscf   :      2.95s CPU      3.14s WALL (    4086 calls)
 
 
      General routines
     calbec       :      5.09s CPU      5.27s WALL (  101950 calls)
     fft          :      0.35s CPU      0.37s WALL (    1170 calls)
     ffts         :      0.05s CPU      0.06s WALL (     438 calls)
     fftw         :     33.14s CPU     35.14s WALL (  428360 calls)
     davcio       :      0.15s CPU      0.17s WALL (   17811 calls)
     write_rec    :      0.07s CPU      1.44s WALL (     141 calls)
 
 
     PHONON       :     58.36s CPU   1m 2.82s WALL

 
   This run was terminated on:  19:57: 8  17Jan2021            

=------------------------------------------------------------------------------=
   JOB DONE.
=------------------------------------------------------------------------------=
