
     Program Q2R v.6.7MaX starts on 17Jan2021 at 19:57: 8 

     This program is part of the open-source Quantum ESPRESSO suite
     for quantum simulation of materials; please cite
         "P. Giannozzi et al., J. Phys.:Condens. Matter 21 395502 (2009);
         "P. Giannozzi et al., J. Phys.:Condens. Matter 29 465901 (2017);
          URL http://www.quantum-espresso.org", 
     in publications or presentations arising from this work. More details at
     http://www.quantum-espresso.org/quote

     Parallel version (MPI), running on     1 processors

     MPI processes distributed on     1 nodes

     reading grid info from file dyn_dir/bn.dyn0    
  reading force constants from file dyn_dir/bn.dyn1
 macroscopic fields = T
   4.53304   0.00000   0.00000
   0.00000   4.53304   0.00000
   0.00000   0.00000   4.53304
  na=            1
   1.89101   0.00000   0.00000
   0.00000   1.89101   0.00000
   0.00000   0.00000   1.89101
  na=            2
  -1.89072   0.00000   0.00000
   0.00000  -1.89072   0.00000
   0.00000   0.00000  -1.89072
Norm of the difference between old and new effective charges:    0.00035236737020155178
  nqs=            1
 q=   0.00000000  0.00000000  0.00000000
  reading force constants from file dyn_dir/bn.dyn2
  nqs=            4
 q=   0.50000000 -0.50000000  0.50000000
 q=  -0.50000000  0.50000000  0.50000000
 q=   0.50000000  0.50000000 -0.50000000
 q=  -0.50000000 -0.50000000 -0.50000000
  reading force constants from file dyn_dir/bn.dyn3
  nqs=            3
 q=   0.00000000 -1.00000000  0.00000000
 q=   0.00000000  0.00000000 -1.00000000
 q=  -1.00000000  0.00000000  0.00000000

      q-space grid ok, #points =    8

      fft-check success (sum of imaginary terms < 10^-12)
 
     Q2R          :      0.01s CPU      0.02s WALL

 
   This run was terminated on:  19:57: 8  17Jan2021            

=------------------------------------------------------------------------------=
   JOB DONE.
=------------------------------------------------------------------------------=
